<?xml version="1.0"?>
<VTKFile type="UnstructuredGrid"  version="0.1"  >
<UnstructuredGrid>
<Piece  NumberOfPoints="961" NumberOfCells="1800">
<Points>
<DataArray  type="Float64"  NumberOfComponents="3"  format="ascii">-2 -2 0  -1.866666666666667 -2 0  -1.733333333333333 -2 0  -1.6 -2 0  -1.466666666666667 -2 0  -1.333333333333333 -2 0  -1.2 -2 0  -1.066666666666667 -2 0  -0.9333333333333333 -2 0  -0.8 -2 0  -0.6666666666666667 -2 0  -0.5333333333333334 -2 0  -0.3999999999999999 -2 0  -0.2666666666666666 -2 0  -0.1333333333333333 -2 0  0 -2 0  0.1333333333333333 -2 0  0.2666666666666666 -2 0  0.3999999999999999 -2 0  0.5333333333333332 -2 0  0.6666666666666665 -2 0  0.7999999999999998 -2 0  0.9333333333333331 -2 0  1.066666666666667 -2 0  1.2 -2 0  1.333333333333333 -2 0  1.466666666666667 -2 0  1.6 -2 0  1.733333333333333 -2 0  1.866666666666667 -2 0  2 -2 0  -2 -1.866666666666667 0  -1.866666666666667 -1.866666666666667 0  -1.733333333333333 -1.866666666666667 0  -1.6 -1.866666666666667 0  -1.466666666666667 -1.866666666666667 0  -1.333333333333333 -1.866666666666667 0  -1.2 -1.866666666666667 0  -1.066666666666667 -1.866666666666667 0  -0.9333333333333333 -1.866666666666667 0  -0.8 -1.866666666666667 0  -0.6666666666666667 -1.866666666666667 0  -0.5333333333333334 -1.866666666666667 0  -0.3999999999999999 -1.866666666666667 0  -0.2666666666666666 -1.866666666666667 0  -0.1333333333333333 -1.866666666666667 0  0 -1.866666666666667 0  0.1333333333333333 -1.866666666666667 0  0.2666666666666666 -1.866666666666667 0  0.3999999999999999 -1.866666666666667 0  0.5333333333333332 -1.866666666666667 0  0.6666666666666665 -1.866666666666667 0  0.7999999999999998 -1.866666666666667 0  0.9333333333333331 -1.866666666666667 0  1.066666666666667 -1.866666666666667 0  1.2 -1.866666666666667 0  1.333333333333333 -1.866666666666667 0  1.466666666666667 -1.866666666666667 0  1.6 -1.866666666666667 0  1.733333333333333 -1.866666666666667 0  1.866666666666667 -1.866666666666667 0  2 -1.866666666666667 0  -2 -1.733333333333333 0  -1.866666666666667 -1.733333333333333 0  -1.733333333333333 -1.733333333333333 0  -1.6 -1.733333333333333 0  -1.466666666666667 -1.733333333333333 0  -1.333333333333333 -1.733333333333333 0  -1.2 -1.733333333333333 0  -1.066666666666667 -1.733333333333333 0  -0.9333333333333333 -1.733333333333333 0  -0.8 -1.733333333333333 0  -0.6666666666666667 -1.733333333333333 0  -0.5333333333333334 -1.733333333333333 0  -0.3999999999999999 -1.733333333333333 0  -0.2666666666666666 -1.733333333333333 0  -0.1333333333333333 -1.733333333333333 0  0 -1.733333333333333 0  0.1333333333333333 -1.733333333333333 0  0.2666666666666666 -1.733333333333333 0  0.3999999999999999 -1.733333333333333 0  0.5333333333333332 -1.733333333333333 0  0.6666666666666665 -1.733333333333333 0  0.7999999999999998 -1.733333333333333 0  0.9333333333333331 -1.733333333333333 0  1.066666666666667 -1.733333333333333 0  1.2 -1.733333333333333 0  1.333333333333333 -1.733333333333333 0  1.466666666666667 -1.733333333333333 0  1.6 -1.733333333333333 0  1.733333333333333 -1.733333333333333 0  1.866666666666667 -1.733333333333333 0  2 -1.733333333333333 0  -2 -1.6 0  -1.866666666666667 -1.6 0  -1.733333333333333 -1.6 0  -1.6 -1.6 0  -1.466666666666667 -1.6 0  -1.333333333333333 -1.6 0  -1.2 -1.6 0  -1.066666666666667 -1.6 0  -0.9333333333333333 -1.6 0  -0.8 -1.6 0  -0.6666666666666667 -1.6 0  -0.5333333333333334 -1.6 0  -0.3999999999999999 -1.6 0  -0.2666666666666666 -1.6 0  -0.1333333333333333 -1.6 0  0 -1.6 0  0.1333333333333333 -1.6 0  0.2666666666666666 -1.6 0  0.3999999999999999 -1.6 0  0.5333333333333332 -1.6 0  0.6666666666666665 -1.6 0  0.7999999999999998 -1.6 0  0.9333333333333331 -1.6 0  1.066666666666667 -1.6 0  1.2 -1.6 0  1.333333333333333 -1.6 0  1.466666666666667 -1.6 0  1.6 -1.6 0  1.733333333333333 -1.6 0  1.866666666666667 -1.6 0  2 -1.6 0  -2 -1.466666666666667 0  -1.866666666666667 -1.466666666666667 0  -1.733333333333333 -1.466666666666667 0  -1.6 -1.466666666666667 0  -1.466666666666667 -1.466666666666667 0  -1.333333333333333 -1.466666666666667 0  -1.2 -1.466666666666667 0  -1.066666666666667 -1.466666666666667 0  -0.9333333333333333 -1.466666666666667 0  -0.8 -1.466666666666667 0  -0.6666666666666667 -1.466666666666667 0  -0.5333333333333334 -1.466666666666667 0  -0.3999999999999999 -1.466666666666667 0  -0.2666666666666666 -1.466666666666667 0  -0.1333333333333333 -1.466666666666667 0  0 -1.466666666666667 0  0.1333333333333333 -1.466666666666667 0  0.2666666666666666 -1.466666666666667 0  0.3999999999999999 -1.466666666666667 0  0.5333333333333332 -1.466666666666667 0  0.6666666666666665 -1.466666666666667 0  0.7999999999999998 -1.466666666666667 0  0.9333333333333331 -1.466666666666667 0  1.066666666666667 -1.466666666666667 0  1.2 -1.466666666666667 0  1.333333333333333 -1.466666666666667 0  1.466666666666667 -1.466666666666667 0  1.6 -1.466666666666667 0  1.733333333333333 -1.466666666666667 0  1.866666666666667 -1.466666666666667 0  2 -1.466666666666667 0  -2 -1.333333333333333 0  -1.866666666666667 -1.333333333333333 0  -1.733333333333333 -1.333333333333333 0  -1.6 -1.333333333333333 0  -1.466666666666667 -1.333333333333333 0  -1.333333333333333 -1.333333333333333 0  -1.2 -1.333333333333333 0  -1.066666666666667 -1.333333333333333 0  -0.9333333333333333 -1.333333333333333 0  -0.8 -1.333333333333333 0  -0.6666666666666667 -1.333333333333333 0  -0.5333333333333334 -1.333333333333333 0  -0.3999999999999999 -1.333333333333333 0  -0.2666666666666666 -1.333333333333333 0  -0.1333333333333333 -1.333333333333333 0  0 -1.333333333333333 0  0.1333333333333333 -1.333333333333333 0  0.2666666666666666 -1.333333333333333 0  0.3999999999999999 -1.333333333333333 0  0.5333333333333332 -1.333333333333333 0  0.6666666666666665 -1.333333333333333 0  0.7999999999999998 -1.333333333333333 0  0.9333333333333331 -1.333333333333333 0  1.066666666666667 -1.333333333333333 0  1.2 -1.333333333333333 0  1.333333333333333 -1.333333333333333 0  1.466666666666667 -1.333333333333333 0  1.6 -1.333333333333333 0  1.733333333333333 -1.333333333333333 0  1.866666666666667 -1.333333333333333 0  2 -1.333333333333333 0  -2 -1.2 0  -1.866666666666667 -1.2 0  -1.733333333333333 -1.2 0  -1.6 -1.2 0  -1.466666666666667 -1.2 0  -1.333333333333333 -1.2 0  -1.2 -1.2 0  -1.066666666666667 -1.2 0  -0.9333333333333333 -1.2 0  -0.8 -1.2 0  -0.6666666666666667 -1.2 0  -0.5333333333333334 -1.2 0  -0.3999999999999999 -1.2 0  -0.2666666666666666 -1.2 0  -0.1333333333333333 -1.2 0  0 -1.2 0  0.1333333333333333 -1.2 0  0.2666666666666666 -1.2 0  0.3999999999999999 -1.2 0  0.5333333333333332 -1.2 0  0.6666666666666665 -1.2 0  0.7999999999999998 -1.2 0  0.9333333333333331 -1.2 0  1.066666666666667 -1.2 0  1.2 -1.2 0  1.333333333333333 -1.2 0  1.466666666666667 -1.2 0  1.6 -1.2 0  1.733333333333333 -1.2 0  1.866666666666667 -1.2 0  2 -1.2 0  -2 -1.066666666666667 0  -1.866666666666667 -1.066666666666667 0  -1.733333333333333 -1.066666666666667 0  -1.6 -1.066666666666667 0  -1.466666666666667 -1.066666666666667 0  -1.333333333333333 -1.066666666666667 0  -1.2 -1.066666666666667 0  -1.066666666666667 -1.066666666666667 0  -0.9333333333333333 -1.066666666666667 0  -0.8 -1.066666666666667 0  -0.6666666666666667 -1.066666666666667 0  -0.5333333333333334 -1.066666666666667 0  -0.3999999999999999 -1.066666666666667 0  -0.2666666666666666 -1.066666666666667 0  -0.1333333333333333 -1.066666666666667 0  0 -1.066666666666667 0  0.1333333333333333 -1.066666666666667 0  0.2666666666666666 -1.066666666666667 0  0.3999999999999999 -1.066666666666667 0  0.5333333333333332 -1.066666666666667 0  0.6666666666666665 -1.066666666666667 0  0.7999999999999998 -1.066666666666667 0  0.9333333333333331 -1.066666666666667 0  1.066666666666667 -1.066666666666667 0  1.2 -1.066666666666667 0  1.333333333333333 -1.066666666666667 0  1.466666666666667 -1.066666666666667 0  1.6 -1.066666666666667 0  1.733333333333333 -1.066666666666667 0  1.866666666666667 -1.066666666666667 0  2 -1.066666666666667 0  -2 -0.9333333333333333 0  -1.866666666666667 -0.9333333333333333 0  -1.733333333333333 -0.9333333333333333 0  -1.6 -0.9333333333333333 0  -1.466666666666667 -0.9333333333333333 0  -1.333333333333333 -0.9333333333333333 0  -1.2 -0.9333333333333333 0  -1.066666666666667 -0.9333333333333333 0  -0.9333333333333333 -0.9333333333333333 0  -0.8 -0.9333333333333333 0  -0.6666666666666667 -0.9333333333333333 0  -0.5333333333333334 -0.9333333333333333 0  -0.3999999999999999 -0.9333333333333333 0  -0.2666666666666666 -0.9333333333333333 0  -0.1333333333333333 -0.9333333333333333 0  0 -0.9333333333333333 0  0.1333333333333333 -0.9333333333333333 0  0.2666666666666666 -0.9333333333333333 0  0.3999999999999999 -0.9333333333333333 0  0.5333333333333332 -0.9333333333333333 0  0.6666666666666665 -0.9333333333333333 0  0.7999999999999998 -0.9333333333333333 0  0.9333333333333331 -0.9333333333333333 0  1.066666666666667 -0.9333333333333333 0  1.2 -0.9333333333333333 0  1.333333333333333 -0.9333333333333333 0  1.466666666666667 -0.9333333333333333 0  1.6 -0.9333333333333333 0  1.733333333333333 -0.9333333333333333 0  1.866666666666667 -0.9333333333333333 0  2 -0.9333333333333333 0  -2 -0.8 0  -1.866666666666667 -0.8 0  -1.733333333333333 -0.8 0  -1.6 -0.8 0  -1.466666666666667 -0.8 0  -1.333333333333333 -0.8 0  -1.2 -0.8 0  -1.066666666666667 -0.8 0  -0.9333333333333333 -0.8 0  -0.8 -0.8 0  -0.6666666666666667 -0.8 0  -0.5333333333333334 -0.8 0  -0.3999999999999999 -0.8 0  -0.2666666666666666 -0.8 0  -0.1333333333333333 -0.8 0  0 -0.8 0  0.1333333333333333 -0.8 0  0.2666666666666666 -0.8 0  0.3999999999999999 -0.8 0  0.5333333333333332 -0.8 0  0.6666666666666665 -0.8 0  0.7999999999999998 -0.8 0  0.9333333333333331 -0.8 0  1.066666666666667 -0.8 0  1.2 -0.8 0  1.333333333333333 -0.8 0  1.466666666666667 -0.8 0  1.6 -0.8 0  1.733333333333333 -0.8 0  1.866666666666667 -0.8 0  2 -0.8 0  -2 -0.6666666666666667 0  -1.866666666666667 -0.
[...]
<PointData  Scalars="f_3403"> 
<DataArray  type="Float64"  Name="f_3403"  format="ascii">0.0000000000000000e+00  0.0000000000000000e+00  0.0000000000000000e+00  0.0000000000000000e+00  0.0000000000000000e+00  0.0000000000000000e+00  0.0000000000000000e+00  0.0000000000000000e+00  0.0000000000000000e+00  0.0000000000000000e+00  0.0000000000000000e+00  0.0000000000000000e+00  0.0000000000000000e+00  0.0000000000000000e+00  0.0000000000000000e+00  0.0000000000000000e+00  0.0000000000000000e+00  0.0000000000000000e+00  0.0000000000000000e+00  0.0000000000000000e+00  0.0000000000000000e+00  0.0000000000000000e+00  0.0000000000000000e+00  0.0000000000000000e+00  0.0000000000000000e+00  0.0000000000000000e+00  0.0000000000000000e+00  0.0000000000000000e+00  0.0000000000000000e+00  0.0000000000000000e+00  0.0000000000000000e+00  0.0000000000000000e+00  1.7607758014365527e-04  3.4991385474536892e-04  5.1973683904397365e-04  6.8375055285835611e-04  8.4019439126964716e-04  9.8737661957878919e-04  1.1236987741019527e-03  1.2476760329206880e-03  1.3579551644629744e-03  1.4533305420560347e-03  1.5327583153940299e-03  1.5953686806047486e-03  1.6404761375442131e-03  1.6675876130057843e-03  1.6764083410867206e-03  1.6668454178158719e-03  1.6390089813435498e-03  1.5932110082148869e-03  1.5299617579401631e-03  1.4499639402523886e-03  1.3541047208490396e-03  1.2434457220471245e-03  1.1192112170387730e-03  9.8277476786369175e-04  8.3564463770262765e-04  6.7944847061866289e-04  5.1591812751402666e-04  3.4687666531922211e-04  1.7423283726284266e-04  0.0000000000000000e+00  0.0000000000000000e+00  3.4991385474536881e-04  6.9556914270027612e-04  1.0333152269209173e-03  1.3595397228569196e-03  1.6707260861147236e-03  1.9635031507970846e-03  2.2346883547344708e-03  2.4813264252763886e-03  2.7007243766075488e-03  2.8904830662562016e-03  3.0485252472529341e-03  3.1731199091874066e-03  3.2629026496845573e-03  3.3168918185269795e-03  3.3345002100218539e-03  3.3155421342906393e-03  3.2602357677840631e-03  3.1692007619550126e-03  3.0434511719539671e-03  2.8843838504939473e-03  2.6937625327995793e-03  2.4736979157549254e-03  2.2266241100778175e-03  1.9552719263309600e-03  1.6626395624176797e-03  1.3519614316784914e-03  1.0266761856136664e-03  6.9039557183292921e-04  3.4687666531922206e-04  0.0000000000000000e+00  0.0000000000000000e+00  5.1973683904397387e-04  1.0333152269209177e-03  1.5352281514189119e-03  2.0200674531138303e-03  2.4825874582554727e-03  2.9177677433587712e-03  3.3208724695162652e-03  3.6875056668078149e-03  4.0136622215752064e-03  4.2957742799472447e-03  4.5307526899679611e-03  4.7160230489843606e-03  4.8495559135089857e-03  4.9298907596608136e-03  4.9561533455597670e-03  4.9280662153490910e-03  4.8459521910073633e-03  4.7107308161831417e-03  4.5239078395606569e-03  4.2875579478742140e-03  4.0043010757729617e-03  3.6772727281252273e-03  3.3100888493813639e-03  2.9068058670179589e-03  2.4718766284063764e-03  2.0101030505608377e-03  1.5265864047082373e-03  1.0266761856136664e-03  5.1591812751402644e-04  0.0000000000000000e+00  0.0000000000000000e+00  6.8375055285835665e-04  1.3595397228569205e-03  2.0200674531138298e-03  2.6581833936558598e-03  3.2669639741962908e-03  3.8397896278834589e-03  4.3704195657616176e-03  4.8530626671520879e-03  5.2824435579320785e-03  5.6538631196405365e-03  5.9632527207125093e-03  6.2072214860078639e-03  6.3830959610459625e-03  6.4889515954936984e-03  6.5236355679847953e-03  6.4867805979282123e-03  6.3788095337983745e-03  6.2009306643445502e-03  5.9551238614399980e-03  5.6441178231927871e-03  5.2713588364508854e-03  4.8409716132588989e-03  4.3577128721361442e-03  3.8269184296089828e-03  3.2544446370779381e-03  2.6466050331631604e-03  2.0101030505608368e-03  1.3519614316784914e-03  6.7944847061866234e-04  0.0000000000000000e+00  0.0000000000000000e+00  8.4019439126964814e-04  1.6707260861147245e-03  2.4825874582554736e-03  3.2669639741962886e-03  4.0153275002856852e-03  4.7195289723336465e-03  5.3718884281812830e-03  5.9652808426673516e-03  6.4932165156909088e-03  6.9499149337750197e-03  7.3303711179744310e-03  7.6304135403621768e-03  7.8467527695248469e-03  7.9770201076502685e-03  8.0197956127174234e-03  7.9746250575480730e-03  7.8420255577025394e-03  7.6234797946274210e-03  7.3214189599903759e-03  6.9391947422796588e-03  6.4810408584486268e-03  5.9520247936517738e-03  5.3579905442531304e-03  4.7054932574177337e-03  4.0017267178761116e-03  3.2544446370779381e-03  2.4718766284063751e-03  1.6626395624176795e-03  8.3564463770262754e-04  0.0000000000000000e+00  0.0000000000000000e+00  9.8737661957879006e-04  1.9635031507970859e-03  2.9177677433587720e-03  3.8397896278834602e-03  4.7195289723336500e-03  5.5473950682139164e-03  6.3143512391696599e-03  7.0120149462620553e-03  7.6327516930499145e-03  8.1697614405085699e-03  8.6171563277091610e-03  8.9700285787940072e-03  9.2245075780615082e-03  9.3778052238274665e-03  9.4282488321185600e-03  9.3753010515417821e-03  9.2195664650431258e-03  8.9627847839903168e-03  8.6078107746088775e-03  8.1585812851174278e-03  7.6200699530907462e-03  6.9982303568246812e-03  6.2999285234451698e-03  5.5328658132047671e-03  4.7054932574177371e-03  3.8269184296089846e-03  2.9068058670179602e-03  1.9552719263309592e-03  9.8277476786369109e-04  0.0000000000000000e+00  0.0000000000000000e+00  1.1236987741019544e-03  2.2346883547344721e-03  3.3208724695162673e-03  4.3704195657616194e-03  5.3718884281812847e-03  6.3143512391696625e-03  7.1875126274963215e-03  7.9818231980244830e-03  8.6885860560321909e-03  9.3000548883082762e-03  9.8095222275771492e-03  1.0211396611597430e-02  1.0501267461872537e-02  1.0675956655389960e-02  1.0733555947854238e-02  1.0673449625579486e-02  1.0496322008646128e-02  1.0204149690143778e-02  9.8001786634171958e-03  9.2888867485106941e-03  8.6759319680801174e-03  7.9680877307686197e-03  7.1731658472052691e-03  6.2999285234451672e-03  5.3579905442531295e-03  4.3577128721361416e-03  3.3100888493813561e-03  2.2266241100778127e-03  1.1192112170387715e-03  0.0000000000000000e+00  0.0000000000000000e+00  1.2476760329206897e-03  2.4813264252763916e-03  3.6875056668078218e-03  4.8530626671520931e-03  5.9652808426673603e-03  7.0120149462620570e-03  7.9818231980244812e-03  8.8640931827571844e-03  9.6491599492716500e-03  1.0328414756446573e-02  1.0894402955527594e-02  1.1340909578321410e-02  1.1663031320992593e-02  1.1857233776040175e-02  1.1921392970306654e-02  1.1854820510132593e-02  1.1658271907788741e-02  1.1333937954808195e-02  1.0885419304510082e-02  1.0317684713752882e-02  9.6370136590920013e-03  8.8509242728837430e-03  7.9680877307686093e-03  6.9982303568246725e-03  5.9520247936517678e-03  4.8409716132588937e-03  3.6772727281252195e-03  2.4736979157549211e-03  1.2434457220471215e-03  0.0000000000000000e+00  0.0000000000000000e+00  1.3579551644629761e-03  2.7007243766075518e-03  4.0136622215752116e-03  5.2824435579320803e-03  6.4932165156909132e-03  7.6327516930499197e-03  8.6885860560321944e-03  9.6491599492716483e-03  1.0503945573292888e-02  1.1243565272348341e-02  1.1859898007649557e-02  1.2346172466565757e-02  1.2697045382382657e-02  1.2908663813022648e-02  1.2978710348933366e-02  1.2906430484465143e-02  1.2692641684018466e-02  1.2339723991508277e-02  1.1851592354681376e-02  1.1233651149185240e-02  1.0492731676217074e-02  9.6370136590920134e-03  8.6759319680801208e-03  7.6200699530907419e-03  6.4810408584486268e-03  5.2713588364508889e-03  4.0043010757729591e-03  2.6937625327995763e-03  1.3541047208490379e-03  0.0000000000000000e+00  0.0000000000000000e+00  1.4533305420560371e-03  2.8904830662562064e-03  4.2957742799472507e-03  5.6538631196405426e-03  6.9499149337750284e-03  8.1697614405085751e-03  9.3000548883082849e-03  1.0328414756446582e-02  1.1243565272348348e-02  1.2035462000944259e-02  1.2695405784047605e-02  1.3216142380798821e-02  1.3591946287370770e-02  1.3818687396590378e-02  1.3893879393400426e-02  1.3816709063568104e-02  1.3588046010277048e-02  1.3210432612589522e-02  1.2688054405533829e-02  1.2026691397323444e-02  1.1233651149185245e-02  1.0317684713752894e-02  9.2888867485107062e-03  8.1585812851174330e-03  6.9391947422796623e-03  5.6441178231927880e-03  4.2875579478742105e-03  2.8843838504939451e-03  1.4499639402523880e-03  0.0000000000000000e+00  0.0000000000000000e+00  1.5327583153940331e-03  3.0485252472529406e-03  4.5307526899679663e-03  5.9632527207125197e-03  7.3303711179744397e-03  8.6171563277091627e-03  9.8095222275771561e-03  1.0894402955527602e-02  1.1859898007649566e-02  1.2695405784047608e-02  1.3391743780512598e-02  1.3941253695748574e-02  1.4337889853894599e-02  1.4577289531472375e-02  1.4656824023926216e-02  1.4575629582451250e-02  1.4334617685614399e-02  1.3936464467864774e-02  1.3385579491787716e-02  1.2688054405533829e-02  1.1851592354681379e-02  1.0885419304510103e-02  9.8001786634172132e-03  8.6078107746088862e-03  7.3214189599903785e-03  5.9551238614400006e-03  4.5239078395606551e-03  3.0434511719539671e-03  1.5299617579401638e-03  0.0000000000000000e+00  0.0000000000000000e+00  1.5953686806047509e-03  3.1731199091874127e-03  4.7160230489843658e-03  6.2072214860078726e-03  7.6304135403621846e-03  8.9700285787940159e-03  1.0211396611597439e-02  1.1340909578321432e-02  1.2346172466565773e-02  1.3216142380798834e-02  1.3941253695748577e-02  1.4513527500957182e-02  1.4926663675554902e-02  1.5176114127052293e-02  1.5259135982201614e-02  1.5174823824292288e-02  1.4924120417899265e-02  1.4509805733968009e-02  1.3936464467864800e-02  1.3210432612589543e-02  1.2339723991508301e-02  1.1333937954808223e-02  1.0204149690143806e-02  8.9627847839903307e-03  7.6234797946274288e-03  6.2009306643445571e-03  4.7107308161831486e-03  3.1692007619550161e-03  1.5932110082148888e-03  0.0000000000000000e+00  0.0000000000000000e+00  1.6404761375442157e-03  3.2629026496845612e-03  4.8495559135089943e-03  6.3830959610459738e-03  7.8467527695248625e-03  9.2245075780615221e-03  1.0501267461872563e-02  1.1663031320992622e-02  1.2697045382382671e-02  1.3591946287370787e-02  1.4337889853894618e-02  1.4926663675554919e-02  1.5351781853833088e-02  1.5608560358267754e-02  1.5694171769291578e-02  1.5607678472242334e-02  1.5350043726768663e-02  1.4924120417899247e-02  1.4334617685614394e-02  1.3588046010277060e-02  1.2692641684018485e-02  1.1658271907788767e-02  1.0496322008646154e-02  9.2195664650431344e-03  7.8420255577025498e-03  6.3788095337983814e-03  4.8459521910073685e-03  3.2602357677840657e-03  1.6390089813435511e-03  0.0000000000000000e+00  0.0000000000000000e+00  1.6675876130057853e-03  3.3168918185269795e-03  4.9298907596608196e-03  6.4889515954937053e-03  7.9770201076502859e-03  9.3778052238274821e-03  1.0675956655389986e-02  1.1857233776040201e-02  1.2908663813022669e-02  1.3818687396590396e-02  1.4577289531472385e-02  1.5176114127052281e-02  1.5608560358267754e-02  1.5869859329559952e-02  1.5957129777108080e-02  1.5869411862545438e-02  1.5607678472242321e-02  1.5174823824292269e-02  1.4575629582451241e-02  1.3816709063568099e-02  1.2906430484465140e-02  1.1854820510132607e-02  1.0673449625579496e-02  9.3753010515417803e-03  7.9746250575480765e-03  6.4867805979282166e-03  4.9280662153490884e-03  3.3155421342906388e-03  1.6668454178158725e-03  0.0000000000000000e+00  0.0000000000000000e+00  1.6764083410867226e-03  3.3345002100218573e-03  4.9561533455597688e-03  6.5236355679848014e-03  8.0197956127174355e-03  9.4282488321185687e-03  1.0733555947854249e-02  1.1921392970306666e-02  1.2978710348933390e-02  1.3893879393400451e-02  1.4656824023926228e-02  1.5259135982201612e-02  1.5694171769291582e-02  1.5957129777108080e-02  1.6045106343177889e-02  1.5957129777108094e-02  1.5694171769291571e-02  1.5259135982201586e-02  1.4656824023926204e-02  1.3893879393400418e-02  1.2978710348933359e-02  1.1921392970306657e-02  1.0733555947854235e-02  9.4282488321185461e-03  8.0197956127174234e-03  6.5236355679847962e-03  4.9561533455597644e-03  3.3345002100218526e-03  1.6764083410867197e-03  0.0000000000000000e+00  0.0000000000000000e+00  1.6668454178158740e-03  3.3155421342906401e-03  4.9280662153490919e-03  6.4867805979282166e-03  7.9746250575480800e-03  9.3753010515417873e-03  1.0673449625579493e-02  1.1854820510132605e-02  1.2906430484465159e-02  1.3816709063568111e-02  1.4575629582451255e-02  1.5174823824292286e-02  1.5607678472242335e-02  1.5869411862545445e-02  1.5957129777108080e-02  1.5869859329559952e-02  1.5608560358267739e-02  1.5176114127052266e-02  1.4577289531472370e-02  1.3818687396590368e-02  1.2908663813022640e-02  1.1857233776040178e-02  1.0675956655389958e-02  9.3778052238274508e-03  7.9770201076502581e-03  6.4889515954936914e-03  4.9298907596608110e-03  3.3168918185269764e-03  1.6675876130057827e-03  0.0000000000000000e+00  0.0000000000000000e+00  1.6390089813435517e-03  3.2602357677840648e-03  4.8459521910073685e-03  6.3788095337983788e-03  7.8420255577025429e-03  9.2195664650431275e-03  1.0496322008646131e-02  1.1658271907788747e-02  1.2692641684018484e-02  1.3588046010277067e-02  1.4334617685614403e-02  1.4924120417899259e-02  1.5350043726768663e-02  1.5607678472242320e-02  1.5694171769291561e-02  1.5608560358267754e-02  1.5351781853833070e-02  1.4926663675554876e-02  1.4337889853894574e-02  1.3591946287370760e-02  1.2697045382382647e-02  1.1663031320992591e-02  1.0501267461872528e-02  9.2245075780614909e-03  7.8467527695248330e-03  6.3830959610459530e-03  4.8495559135089787e-03  3.2629026496845516e-03  1.6404761375442094e-03  0.0000000000000000e+00  0.0000000000000000e+00  1.5932110082148869e-03  3.1692007619550148e-03  4.7107308161831469e-03  6.2009306643445554e-03  7.6234797946274201e-03  8.9627847839903203e-03  1.0204149690143780e-02  1.1333937954808200e-02  1.2339723991508287e-02  1.3210432612589532e-02  1.3936464467864793e-02  1.4509805733968014e-02  1.4924120417899258e-02  1.5174823824292272e-02  1.5259135982201584e-02  1.5176114127052255e-02  1.4926663675554883e-02  1.4513527500957147e-02  1.3941253695748546e-02  1.3216142380798795e-02  1.2346172466565735e-02  1.1340909578321403e-02  1.0211396611597414e-02  8.9700285787939829e-03  7.6304135403621525e-03  6.2072214860078474e-03  4.7160230489843467e-03  3.1731199091873971e-03  1.5953686806047438e-03  0.0000000000000000e+00  0.0000000000000000e+00  1.5299617579401644e-03  3.0434511719539701e-03  4.5239078395606586e-03  5.9551238614399997e-03  7.3214189599903716e-03  8.6078107746088896e-03  9.8001786634172045e-03  1.0885419304510089e-02  1.1851592354681370e-02  1.2688054405533819e-02  1.3385579491787722e-02  1.3936464467864793e-02  1.4334617685614396e-02  1.4575629582451241e-02  1.4656824023926197e-02  1.4577289531472363e-02  1.4337889853894576e-02  1.3941253695748543e-02  1.3391743780512567e-02  1.2695405784047589e-02  1.1859898007649545e-02  1.0894402955527589e-02  9.8095222275771422e-03  8.6171563277091367e-03  7.3303711179744033e-03  5.9632527207124945e-03  4.5307526899679464e-03  3.0485252472529228e-03  1.5327583153940257e-03  0.0000000000000000e+00  0.0000000000000000e+00  1.4499639402523893e-03  2.8843838504939482e-03  4.2875579478742157e-03  5.6441178231927906e-03  6.9391947422796675e-03  8.1585812851174382e-03  9.2888867485107010e-03  1.0317684713752885e-02  1.1233651149185238e-02  1.2026691397323441e-02  1.2688054405533822e-02  1.3210432612589536e-02  1.3588046010277050e-02  1.3816709063568100e-02  1.3893879393400426e-02  1.3818687396590368e-02  1.3591946287370760e-02  1.3216142380798801e-02  1.2695405784047582e-02  1.2035462000944245e-02  1.1243565272348337e-02  1.0328414756446578e-02  9.3000548883082901e-03  8.1697614405085595e-03  6.9499149337750084e-03  5.6538631196405278e-03  4.2957742799472377e-03  2.8904830662561964e-03  1.4533305420560319e-03  0.0000000000000000e+00  0.0000000000000000e+00  1.3541047208490407e-03  2.6937625327995798e-03  4.0043010757729617e-03  5.2713588364508897e-03  6.4810408584486329e-03  7.6200699530907575e-03  8.6759319680801139e-03  9.6370136590919996e-03  1.0492731676217067e-02  1.1233651149185240e-02  1.1851592354681363e-02  1.2339723991508280e-02  1.2692641684018480e-02  1.2906430484465143e-02  1.2978710348933366e-02  1.2908663813022641e-02  1.2697045382382654e-02  1.2346172466565726e-02  1.1859898007649541e-02  1.1243565272348335e-02  1.0503945573292888e-02  9.6491599492716604e-03  8.6885860560321927e-03  7.6327516930499101e-03  6.4932165156909027e-03  5.2824435579320733e-03  4.0136622215752047e-03  2.7007243766075479e-03  1.3579551644629733e-03  0.0000000000000000e+00  0.0000000000000000e+00  1.2434457220471249e-03  2.4736979157549258e-03  3.6772727281252290e-03  4.8409716132588989e-03  5.9520247936517712e-03  6.9982303568246812e-03  7.9680877307686127e-03  8.8509242728837412e-03  9.6370136590920048e-03  1.0317684713752889e-02  1.0885419304510088e-02  1.1333937954808209e-02  1.1658271907788764e-02  1.1854820510132603e-02  1.1921392970306664e-02  1.1857233776040182e-02  1.1663031320992607e-02  1.1340909578321403e-02  1.0894402955527592e-02  1.0328414756446578e-02  9.6491599492716587e-03  8.8640931827572017e-03  7.9818231980244899e-03  7.0120149462620561e-03  5.9652808426673568e-03  4.8530626671520905e-03  3.6875056668078192e-03  2.4813264252763903e-03  1.2476760329206886e-03  0.0000000000000000e+00  0.0000000000000000e+00  1.1192112170387732e-03  2.2266241100778166e-03  3.3100888493813605e-03  4.3577128721361434e-03  5.3579905442531304e-03  6.2999285234451689e-03  7.1731658472052708e-03  7.9680877307686058e-03  8.6759319680801139e-03  9.2888867485106993e-03  9.8001786634172028e-03  1.0204149690143787e-02  1.0496322008646138e-02  1.0673449625579489e-02  1.0733555947854242e-02  1.0675956655389963e-02  1.0501267461872537e-02  1.0211396611597416e-02  9.8095222275771474e-03  9.3000548883082762e-03  8.6885860560321874e-03  7.9818231980244864e-03  7.1875126274963275e-03  6.3143512391696677e-03  5.3718884281812864e-03  4.3704195657616202e-03  3.3208724695162656e-03  2.2346883547344713e-03  1.1236987741019542e-03  0.0000000000000000e+00  0.0000000000000000e+00  9.8277476786369153e-04  1.9552719263309592e-03  2.9068058670179584e-03  3.8269184296089828e-03  4.7054932574177345e-03  5.5328658132047679e-03  6.2999285234451698e-03  6.9982303568246742e-03  7.6200699530907480e-03  8.1585812851174295e-03  8.6078107746088775e-03  8.9627847839903151e-03  9.2195664650431206e-03  9.3753010515417769e-03  9.4282488321185531e-03  9.3778052238274543e-03  9.2245075780614978e-03  8.9700285787939898e-03  8.6171563277091471e-03  8.1697614405085595e-03  7.6327516930499101e-03  7.0120149462620587e-03  6.3143512391696634e-03  5.5473950682139233e-03  4.7195289723336508e-03  3.8397896278834632e-03  2.9177677433587703e-03  1.9635031507970859e-03  9.8737661957879050e-04  0.0000000000000000e+00  0.0000000000000000e+00  8.3564463770262765e-04  1.6626395624176795e-03  2.4718766284063760e-03  3.2544446370779373e-03  4.0017267178761142e-03  4.7054932574177415e-03  5.3579905442531304e-03  5.9520247936517704e-03  6.4810408584486364e-03  6.9391947422796649e-03  7.3214189599903794e-03  7.6234797946274245e-03  7.8420255577025429e-03  7.9746250575480765e-03  8.0197956127174234e-03  7.9770201076502546e-03  7.8467527695248382e-03  7.6304135403621604e-03  7.3303711179744215e-03  6.9499149337750119e-03  6.4932165156909062e-03  5.9652808426673611e-03  5.3718884281812838e-03  4.7195289723336526e-03  4.0153275002856878e-03  3.2669639741962904e-03  2.4825874582554749e-03  1.6707260861147264e-03  8.4019439126964857e-04  0.0000000000000000e+00  0.0000000000000000e+00  6.7944847061866278e-04  1.3519614316784914e-03  2.0101030505608377e-03  2.6466050331631608e-03  3.2544446370779381e-03  3.8269184296089859e-03  4.3577128721361442e-03  4.8409716132588963e-03  5.2713588364508889e-03  5.6441178231927871e-03  5.9551238614399980e-03  6.2009306643445528e-03  6.3788095337983710e-03  6.4867805979282097e-03  6.5236355679847893e-03  6.4889515954936854e-03  6.3830959610459512e-03  6.2072214860078483e-03  5.9632527207124980e-03  5.6538631196405295e-03  5.2824435579320777e-03  4.8530626671520914e-03  4.3704195657616