<?xml version="1.0"?>
<VTKFile type="UnstructuredGrid"  version="0.1"  >
<UnstructuredGrid>
<Piece  NumberOfPoints="961" NumberOfCells="1800">
<Points>
<DataArray  type="Float64"  NumberOfComponents="3"  format="ascii">-2 -2 0  -1.866666666666667 -2 0  -1.733333333333333 -2 0  -1.6 -2 0  -1.466666666666667 -2 0  -1.333333333333333 -2 0  -1.2 -2 0  -1.066666666666667 -2 0  -0.9333333333333333 -2 0  -0.8 -2 0  -0.6666666666666667 -2 0  -0.5333333333333334 -2 0  -0.3999999999999999 -2 0  -0.2666666666666666 -2 0  -0.1333333333333333 -2 0  0 -2 0  0.1333333333333333 -2 0  0.2666666666666666 -2 0  0.3999999999999999 -2 0  0.5333333333333332 -2 0  0.6666666666666665 -2 0  0.7999999999999998 -2 0  0.9333333333333331 -2 0  1.066666666666667 -2 0  1.2 -2 0  1.333333333333333 -2 0  1.466666666666667 -2 0  1.6 -2 0  1.733333333333333 -2 0  1.866666666666667 -2 0  2 -2 0  -2 -1.866666666666667 0  -1.866666666666667 -1.866666666666667 0  -1.733333333333333 -1.866666666666667 0  -1.6 -1.866666666666667 0  -1.466666666666667 -1.866666666666667 0  -1.333333333333333 -1.866666666666667 0  -1.2 -1.866666666666667 0  -1.066666666666667 -1.866666666666667 0  -0.9333333333333333 -1.866666666666667 0  -0.8 -1.866666666666667 0  -0.6666666666666667 -1.866666666666667 0  -0.5333333333333334 -1.866666666666667 0  -0.3999999999999999 -1.866666666666667 0  -0.2666666666666666 -1.866666666666667 0  -0.1333333333333333 -1.866666666666667 0  0 -1.866666666666667 0  0.1333333333333333 -1.866666666666667 0  0.2666666666666666 -1.866666666666667 0  0.3999999999999999 -1.866666666666667 0  0.5333333333333332 -1.866666666666667 0  0.6666666666666665 -1.866666666666667 0  0.7999999999999998 -1.866666666666667 0  0.9333333333333331 -1.866666666666667 0  1.066666666666667 -1.866666666666667 0  1.2 -1.866666666666667 0  1.333333333333333 -1.866666666666667 0  1.466666666666667 -1.866666666666667 0  1.6 -1.866666666666667 0  1.733333333333333 -1.866666666666667 0  1.866666666666667 -1.866666666666667 0  2 -1.866666666666667 0  -2 -1.733333333333333 0  -1.866666666666667 -1.733333333333333 0  -1.733333333333333 -1.733333333333333 0  -1.6 -1.733333333333333 0  -1.466666666666667 -1.733333333333333 0  -1.333333333333333 -1.733333333333333 0  -1.2 -1.733333333333333 0  -1.066666666666667 -1.733333333333333 0  -0.9333333333333333 -1.733333333333333 0  -0.8 -1.733333333333333 0  -0.6666666666666667 -1.733333333333333 0  -0.5333333333333334 -1.733333333333333 0  -0.3999999999999999 -1.733333333333333 0  -0.2666666666666666 -1.733333333333333 0  -0.1333333333333333 -1.733333333333333 0  0 -1.733333333333333 0  0.1333333333333333 -1.733333333333333 0  0.2666666666666666 -1.733333333333333 0  0.3999999999999999 -1.733333333333333 0  0.5333333333333332 -1.733333333333333 0  0.6666666666666665 -1.733333333333333 0  0.7999999999999998 -1.733333333333333 0  0.9333333333333331 -1.733333333333333 0  1.066666666666667 -1.733333333333333 0  1.2 -1.733333333333333 0  1.333333333333333 -1.733333333333333 0  1.466666666666667 -1.733333333333333 0  1.6 -1.733333333333333 0  1.733333333333333 -1.733333333333333 0  1.866666666666667 -1.733333333333333 0  2 -1.733333333333333 0  -2 -1.6 0  -1.866666666666667 -1.6 0  -1.733333333333333 -1.6 0  -1.6 -1.6 0  -1.466666666666667 -1.6 0  -1.333333333333333 -1.6 0  -1.2 -1.6 0  -1.066666666666667 -1.6 0  -0.9333333333333333 -1.6 0  -0.8 -1.6 0  -0.6666666666666667 -1.6 0  -0.5333333333333334 -1.6 0  -0.3999999999999999 -1.6 0  -0.2666666666666666 -1.6 0  -0.1333333333333333 -1.6 0  0 -1.6 0  0.1333333333333333 -1.6 0  0.2666666666666666 -1.6 0  0.3999999999999999 -1.6 0  0.5333333333333332 -1.6 0  0.6666666666666665 -1.6 0  0.7999999999999998 -1.6 0  0.9333333333333331 -1.6 0  1.066666666666667 -1.6 0  1.2 -1.6 0  1.333333333333333 -1.6 0  1.466666666666667 -1.6 0  1.6 -1.6 0  1.733333333333333 -1.6 0  1.866666666666667 -1.6 0  2 -1.6 0  -2 -1.466666666666667 0  -1.866666666666667 -1.466666666666667 0  -1.733333333333333 -1.466666666666667 0  -1.6 -1.466666666666667 0  -1.466666666666667 -1.466666666666667 0  -1.333333333333333 -1.466666666666667 0  -1.2 -1.466666666666667 0  -1.066666666666667 -1.466666666666667 0  -0.9333333333333333 -1.466666666666667 0  -0.8 -1.466666666666667 0  -0.6666666666666667 -1.466666666666667 0  -0.5333333333333334 -1.466666666666667 0  -0.3999999999999999 -1.466666666666667 0  -0.2666666666666666 -1.466666666666667 0  -0.1333333333333333 -1.466666666666667 0  0 -1.466666666666667 0  0.1333333333333333 -1.466666666666667 0  0.2666666666666666 -1.466666666666667 0  0.3999999999999999 -1.466666666666667 0  0.5333333333333332 -1.466666666666667 0  0.6666666666666665 -1.466666666666667 0  0.7999999999999998 -1.466666666666667 0  0.9333333333333331 -1.466666666666667 0  1.066666666666667 -1.466666666666667 0  1.2 -1.466666666666667 0  1.333333333333333 -1.466666666666667 0  1.466666666666667 -1.466666666666667 0  1.6 -1.466666666666667 0  1.733333333333333 -1.466666666666667 0  1.866666666666667 -1.466666666666667 0  2 -1.466666666666667 0  -2 -1.333333333333333 0  -1.866666666666667 -1.333333333333333 0  -1.733333333333333 -1.333333333333333 0  -1.6 -1.333333333333333 0  -1.466666666666667 -1.333333333333333 0  -1.333333333333333 -1.333333333333333 0  -1.2 -1.333333333333333 0  -1.066666666666667 -1.333333333333333 0  -0.9333333333333333 -1.333333333333333 0  -0.8 -1.333333333333333 0  -0.6666666666666667 -1.333333333333333 0  -0.5333333333333334 -1.333333333333333 0  -0.3999999999999999 -1.333333333333333 0  -0.2666666666666666 -1.333333333333333 0  -0.1333333333333333 -1.333333333333333 0  0 -1.333333333333333 0  0.1333333333333333 -1.333333333333333 0  0.2666666666666666 -1.333333333333333 0  0.3999999999999999 -1.333333333333333 0  0.5333333333333332 -1.333333333333333 0  0.6666666666666665 -1.333333333333333 0  0.7999999999999998 -1.333333333333333 0  0.9333333333333331 -1.333333333333333 0  1.066666666666667 -1.333333333333333 0  1.2 -1.333333333333333 0  1.333333333333333 -1.333333333333333 0  1.466666666666667 -1.333333333333333 0  1.6 -1.333333333333333 0  1.733333333333333 -1.333333333333333 0  1.866666666666667 -1.333333333333333 0  2 -1.333333333333333 0  -2 -1.2 0  -1.866666666666667 -1.2 0  -1.733333333333333 -1.2 0  -1.6 -1.2 0  -1.466666666666667 -1.2 0  -1.333333333333333 -1.2 0  -1.2 -1.2 0  -1.066666666666667 -1.2 0  -0.9333333333333333 -1.2 0  -0.8 -1.2 0  -0.6666666666666667 -1.2 0  -0.5333333333333334 -1.2 0  -0.3999999999999999 -1.2 0  -0.2666666666666666 -1.2 0  -0.1333333333333333 -1.2 0  0 -1.2 0  0.1333333333333333 -1.2 0  0.2666666666666666 -1.2 0  0.3999999999999999 -1.2 0  0.5333333333333332 -1.2 0  0.6666666666666665 -1.2 0  0.7999999999999998 -1.2 0  0.9333333333333331 -1.2 0  1.066666666666667 -1.2 0  1.2 -1.2 0  1.333333333333333 -1.2 0  1.466666666666667 -1.2 0  1.6 -1.2 0  1.733333333333333 -1.2 0  1.866666666666667 -1.2 0  2 -1.2 0  -2 -1.066666666666667 0  -1.866666666666667 -1.066666666666667 0  -1.733333333333333 -1.066666666666667 0  -1.6 -1.066666666666667 0  -1.466666666666667 -1.066666666666667 0  -1.333333333333333 -1.066666666666667 0  -1.2 -1.066666666666667 0  -1.066666666666667 -1.066666666666667 0  -0.9333333333333333 -1.066666666666667 0  -0.8 -1.066666666666667 0  -0.6666666666666667 -1.066666666666667 0  -0.5333333333333334 -1.066666666666667 0  -0.3999999999999999 -1.066666666666667 0  -0.2666666666666666 -1.066666666666667 0  -0.1333333333333333 -1.066666666666667 0  0 -1.066666666666667 0  0.1333333333333333 -1.066666666666667 0  0.2666666666666666 -1.066666666666667 0  0.3999999999999999 -1.066666666666667 0  0.5333333333333332 -1.066666666666667 0  0.6666666666666665 -1.066666666666667 0  0.7999999999999998 -1.066666666666667 0  0.9333333333333331 -1.066666666666667 0  1.066666666666667 -1.066666666666667 0  1.2 -1.066666666666667 0  1.333333333333333 -1.066666666666667 0  1.466666666666667 -1.066666666666667 0  1.6 -1.066666666666667 0  1.733333333333333 -1.066666666666667 0  1.866666666666667 -1.066666666666667 0  2 -1.066666666666667 0  -2 -0.9333333333333333 0  -1.866666666666667 -0.9333333333333333 0  -1.733333333333333 -0.9333333333333333 0  -1.6 -0.9333333333333333 0  -1.466666666666667 -0.9333333333333333 0  -1.333333333333333 -0.9333333333333333 0  -1.2 -0.9333333333333333 0  -1.066666666666667 -0.9333333333333333 0  -0.9333333333333333 -0.9333333333333333 0  -0.8 -0.9333333333333333 0  -0.6666666666666667 -0.9333333333333333 0  -0.5333333333333334 -0.9333333333333333 0  -0.3999999999999999 -0.9333333333333333 0  -0.2666666666666666 -0.9333333333333333 0  -0.1333333333333333 -0.9333333333333333 0  0 -0.9333333333333333 0  0.1333333333333333 -0.9333333333333333 0  0.2666666666666666 -0.9333333333333333 0  0.3999999999999999 -0.9333333333333333 0  0.5333333333333332 -0.9333333333333333 0  0.6666666666666665 -0.9333333333333333 0  0.7999999999999998 -0.9333333333333333 0  0.9333333333333331 -0.9333333333333333 0  1.066666666666667 -0.9333333333333333 0  1.2 -0.9333333333333333 0  1.333333333333333 -0.9333333333333333 0  1.466666666666667 -0.9333333333333333 0  1.6 -0.9333333333333333 0  1.733333333333333 -0.9333333333333333 0  1.866666666666667 -0.9333333333333333 0  2 -0.9333333333333333 0  -2 -0.8 0  -1.866666666666667 -0.8 0  -1.733333333333333 -0.8 0  -1.6 -0.8 0  -1.466666666666667 -0.8 0  -1.333333333333333 -0.8 0  -1.2 -0.8 0  -1.066666666666667 -0.8 0  -0.9333333333333333 -0.8 0  -0.8 -0.8 0  -0.6666666666666667 -0.8 0  -0.5333333333333334 -0.8 0  -0.3999999999999999 -0.8 0  -0.2666666666666666 -0.8 0  -0.1333333333333333 -0.8 0  0 -0.8 0  0.1333333333333333 -0.8 0  0.2666666666666666 -0.8 0  0.3999999999999999 -0.8 0  0.5333333333333332 -0.8 0  0.6666666666666665 -0.8 0  0.7999999999999998 -0.8 0  0.9333333333333331 -0.8 0  1.066666666666667 -0.8 0  1.2 -0.8 0  1.333333333333333 -0.8 0  1.466666666666667 -0.8 0  1.6 -0.8 0  1.733333333333333 -0.8 0  1.866666666666667 -0.8 0  2 -0.8 0  -2 -0.6666666666666667 0  -1.866666666666667 -0.
[...]
<PointData  Scalars="f_3403"> 
<DataArray  type="Float64"  Name="f_3403"  format="ascii">0.0000000000000000e+00  0.0000000000000000e+00  0.0000000000000000e+00  0.0000000000000000e+00  0.0000000000000000e+00  0.0000000000000000e+00  0.0000000000000000e+00  0.0000000000000000e+00  0.0000000000000000e+00  0.0000000000000000e+00  0.0000000000000000e+00  0.0000000000000000e+00  0.0000000000000000e+00  0.0000000000000000e+00  0.0000000000000000e+00  0.0000000000000000e+00  0.0000000000000000e+00  0.0000000000000000e+00  0.0000000000000000e+00  0.0000000000000000e+00  0.0000000000000000e+00  0.0000000000000000e+00  0.0000000000000000e+00  0.0000000000000000e+00  0.0000000000000000e+00  0.0000000000000000e+00  0.0000000000000000e+00  0.0000000000000000e+00  0.0000000000000000e+00  0.0000000000000000e+00  0.0000000000000000e+00  0.0000000000000000e+00  1.3934761265172230e-04  2.7691878597944339e-04  4.1130931286477033e-04  5.4109643015282744e-04  6.6488602741608281e-04  7.8133927910403701e-04  8.8919198906954361e-04  9.8727065800403770e-04  1.0745065535034005e-03  1.1499481829330099e-03  1.2127722610560832e-03  1.2622931507475334e-03  1.2979707153216013e-03  1.3194165127541882e-03  1.3263982690744534e-03  1.3188425834332307e-03  1.2968358374023212e-03  1.2606233039796043e-03  1.2106064763442266e-03  1.1473386618758258e-03  1.0715189131041698e-03  9.8398439473853920e-04  8.8570131710360772e-04  7.7775460738826920e-04  6.6133655683039245e-04  5.3773481602482096e-04  4.0832043121078452e-04  2.7453749315908821e-04  1.3789866675838729e-04  0.0000000000000000e+00  0.0000000000000000e+00  2.7691878597944344e-04  5.5046233933415370e-04  8.1773770584925016e-04  1.0758831689753362e-03  1.3221141958009062e-03  1.5537628691050544e-03  1.7683121576023452e-03  1.9634264234320155e-03  2.1369788517532095e-03  2.2870760249868809e-03  2.4120796307802168e-03  2.5106251885773112e-03  2.5816376432210159e-03  2.6243436738883877e-03  2.6382805872727866e-03  2.6233016971481259e-03  2.5795781336217429e-03  2.5075970714760216e-03  2.4081564158694975e-03  2.2823560338284328e-03  2.1315856706860220e-03  1.9575097423813080e-03  1.7620492498839171e-03  1.5473611275660455e-03  1.3158154277736951e-03  1.0699708901170948e-03  8.1254970754849687e-04  5.4641278235673899e-04  2.7453749315908832e-04  0.0000000000000000e+00  0.0000000000000000e+00  4.1130931286477050e-04  8.1773770584925060e-04  1.2149211598791846e-03  1.5985753652788055e-03  1.9645466101510661e-03  2.3088617794182714e-03  2.6277753996985743e-03  2.9178132290863250e-03  3.1758122112072931e-03  3.3989566052119733e-03  3.5848100508640290e-03  3.7313432976409668e-03  3.8369573260966005e-03  3.9005016132754749e-03  3.9212873355049613e-03  3.8990953564237026e-03  3.8341789117173728e-03  3.7272609715135866e-03  3.5795263340309513e-03  3.3926085776746391e-03  3.1685720717728413e-03  2.9098893179734828e-03  2.6194139658184136e-03  2.3003499200286832e-03  1.9562170386729356e-03  1.5908140160555849e-03  1.2081791460340451e-03  8.1254970754849687e-04  4.0832043121078452e-04  0.0000000000000000e+00  0.0000000000000000e+00  5.4109643015282810e-04  1.0758831689753373e-03  1.5985753652788060e-03  2.1035086042977581e-03  2.5852005970463977e-03  3.0384127226825994e-03  3.4582093189962841e-03  3.8400135711788288e-03  4.1796592834481300e-03  4.4734379844375855e-03  4.7181408814655473e-03  4.9110952168717010e-03  5.0501946205602230e-03  5.1339231057449426e-03  5.1613724209423079e-03  5.1322525489388609e-03  5.0468952301490067e-03  4.9062504804718620e-03  4.7118761693847010e-03  4.4659208196736380e-03  4.1710998833772508e-03  3.8306658372397645e-03  3.4483725238617503e-03  3.0284342406113672e-03  2.5754801446113123e-03  2.0945045899895976e-03  1.5908140160555845e-03  1.0699708901170943e-03  5.3773481602482074e-04  0.0000000000000000e+00  0.0000000000000000e+00  6.6488602741608368e-04  1.3221141958009084e-03  1.9645466101510679e-03  2.5852005970463977e-03  3.1773234044477215e-03  3.7344660672563421e-03  4.2505548001135120e-03  4.7199586651219807e-03  5.1375525489441810e-03  5.4987746560762035e-03  5.7996778301787526e-03  6.0369740929889894e-03  6.2080718635429263e-03  6.3111054001003140e-03  6.3449560972066018e-03  6.3092653709248487e-03  6.2044389745975490e-03  6.0316427026574082e-03  5.7927895575805455e-03  5.4905185715034477e-03  5.1281655858602627e-03  4.7097263964411690e-03  4.2398127644603170e-03  3.7236018730211636e-03  3.1667798672454679e-03  2.5754801446113127e-03  1.9562170386729348e-03  1.3158154277736942e-03  6.6133655683039223e-04  0.0000000000000000e+00  0.0000000000000000e+00  7.8133927910403788e-04  1.5537628691050561e-03  2.3088617794182727e-03  3.0384127226826016e-03  3.7344660672563455e-03  4.3894320785449912e-03  4.9961641119620707e-03  5.5480375299635266e-03  6.0390232647819213e-03  6.4637550776824376e-03  6.8175896710869982e-03  7.0966589036824757e-03  7.2979134522171861e-03  7.4191573644104445e-03  7.4590730585031252e-03  7.4172364467101435e-03  7.2941219904118634e-03  7.0910976312513448e-03  6.8104096805408415e-03  6.4551578853388573e-03  6.0292610190242259e-03  5.5374134630955321e-03  4.9850333512984164e-03  4.3782029328234395e-03  3.7236018730211671e-03  3.0284342406113685e-03  2.3003499200286832e-03  1.5473611275660445e-03  7.7775460738826877e-04  0.0000000000000000e+00  0.0000000000000000e+00  8.8919198906954491e-04  1.7683121576023474e-03  2.6277753996985774e-03  3.4582093189962850e-03  4.2505548001135155e-03  4.9961641119620741e-03  5.6868953179876752e-03  6.3152017774493639e-03  6.8742155920576697e-03  7.3578239414725452e-03  7.7607373448968769e-03  8.0785489837216888e-03  8.3077843255069690e-03  8.4459404058067188e-03  8.4915142529138603e-03  8.4440200809411583e-03  8.3039950264914703e-03  8.0729933599621891e-03  7.7535692599127650e-03  7.3492483931381072e-03  6.8644886893173508e-03  6.3046308327381617e-03  5.6758391103487321e-03  4.9850333512984173e-03  4.2398127644603179e-03  3.4483725238617468e-03  2.6194139658184080e-03  1.7620492498839142e-03  8.8570131710360642e-04  0.0000000000000000e+00  0.0000000000000000e+00  9.8727065800403965e-04  1.9634264234320185e-03  2.9178132290863315e-03  3.8400135711788327e-03  4.7199586651219859e-03  5.5480375299635292e-03  6.3152017774493622e-03  7.0130648659930414e-03  7.6339946146568236e-03  8.1711978366412249e-03  8.6187960345694373e-03  8.9718911974280939e-03  9.2266208513252408e-03  9.3802016438585753e-03  9.4309608846359881e-03  9.3783556207734878e-03  9.2229789930366804e-03  8.9665537915695551e-03  8.6119133049600578e-03  8.1629697274339160e-03  7.6246705509597943e-03  7.0029435170507991e-03  6.3046308327381574e-03  5.5374134630955252e-03  4.7097263964411629e-03  3.8306658372397580e-03  2.9098893179734754e-03  1.9575097423813036e-03  9.8398439473853681e-04  0.0000000000000000e+00  0.0000000000000000e+00  1.0745065535034033e-03  2.1369788517532138e-03  3.1758122112073009e-03  4.1796592834481344e-03  5.1375525489441897e-03  6.0390232647819274e-03  6.8742155920576793e-03  7.6339946146568244e-03  8.3100469841746339e-03  8.8949729782356497e-03  9.3823688357456206e-03  9.7668983298441273e-03  1.0044352656465918e-02  1.0211697852773777e-02  1.0267109113977086e-02  1.0209991546762677e-02  1.0040987079087061e-02  9.7619674347112946e-03  9.3760132711681425e-03  8.8873797660738770e-03  8.3014491131626796e-03  7.6246705509598013e-03  6.8644886893173534e-03  6.0292610190242225e-03  5.1281655858602636e-03  4.1710998833772500e-03  3.1685720717728369e-03  2.1315856706860181e-03  1.0715189131041678e-03  0.0000000000000000e+00  0.0000000000000000e+00  1.1499481829330132e-03  2.2870760249868870e-03  3.3989566052119815e-03  4.4734379844375933e-03  5.4987746560762130e-03  6.4637550776824411e-03  7.3578239414725504e-03  8.1711978366412232e-03  8.8949729782356532e-03  9.5212237259667959e-03  1.0043090690150740e-02  1.0454857319860953e-02  1.0752013989516458e-02  1.0931308743445181e-02  1.0990784021547097e-02  1.0929798870021155e-02  1.0749036335018829e-02  1.0450495938845377e-02  1.0037471342053059e-02  9.5145134942888256e-03  8.8873797660738770e-03  8.1629697274339282e-03  7.3492483931381159e-03  6.4551578853388582e-03  5.4905185715034468e-03  4.4659208196736380e-03  3.3926085776746352e-03  2.2823560338284315e-03  1.1473386618758249e-03  0.0000000000000000e+00  0.0000000000000000e+00  1.2127722610560860e-03  2.4120796307802220e-03  3.5848100508640360e-03  4.7181408814655516e-03  5.7996778301787639e-03  6.8175896710870043e-03  7.7607373448968821e-03  8.6187960345694460e-03  9.3823688357456293e-03  1.0043090690150743e-02  1.0593721324143346e-02  1.1028226034028621e-02  1.1341843284472708e-02  1.1531138235301672e-02  1.1594041483029444e-02  1.1529872493274661e-02  1.1339347404221455e-02  1.1024571093863317e-02  1.0589013618672850e-02  1.0037471342053060e-02  9.3760132711681494e-03  8.6119133049600786e-03  7.7535692599127815e-03  6.8104096805408441e-03  5.7927895575805490e-03  4.7118761693847036e-03  3.5795263340309552e-03  2.4081564158694997e-03  1.2106064763442270e-03  0.0000000000000000e+00  0.0000000000000000e+00  1.2622931507475358e-03  2.5106251885773168e-03  3.7313432976409746e-03  4.9110952168717097e-03  6.0369740929890068e-03  7.0966589036824818e-03  8.0785489837216957e-03  8.9718911974281026e-03  9.7668983298441394e-03  1.0454857319860959e-02  1.1028226034028627e-02  1.1480717381210682e-02  1.1807369696046746e-02  1.2004602472552958e-02  1.2070256705986411e-02  1.2003619297810825e-02  1.1805431190410165e-02  1.1477879119243712e-02  1.1024571093863319e-02  1.0450495938845384e-02  9.7619674347113085e-03  8.9665537915695776e-03  8.0729933599622064e-03  7.0910976312513509e-03  6.0316427026574212e-03  4.9062504804718680e-03  3.7272609715135910e-03  2.5075970714760242e-03  1.2606233039796041e-03  0.0000000000000000e+00  0.0000000000000000e+00  1.2979707153216030e-03  2.5816376432210189e-03  3.8369573260966057e-03  5.0501946205602291e-03  6.2080718635429410e-03  7.2979134522171895e-03  8.3077843255069759e-03  9.2266208513252512e-03  1.0044352656465924e-02  1.0752013989516472e-02  1.1341843284472720e-02  1.1807369696046763e-02  1.2143485507830534e-02  1.2346503470981287e-02  1.2414198311883807e-02  1.2345831848766311e-02  1.2142161374564499e-02  1.1805431190410149e-02  1.1339347404221456e-02  1.0749036335018837e-02  1.0040987079087068e-02  9.2229789930366977e-03  8.3039950264914876e-03  7.2941219904118643e-03  6.2044389745975559e-03  5.0468952301490084e-03  3.8341789117173741e-03  2.5795781336217429e-03  1.2968358374023214e-03  0.0000000000000000e+00  0.0000000000000000e+00  1.3194165127541899e-03  2.6243436738883916e-03  3.9005016132754784e-03  5.1339231057449513e-03  6.3111054001003279e-03  7.4191573644104506e-03  8.4459404058067258e-03  9.3802016438585857e-03  1.0211697852773783e-02  1.0931308743445193e-02  1.1531138235301677e-02  1.2004602472552951e-02  1.2346503470981282e-02  1.2553087439650465e-02  1.2622087004868932e-02  1.2552746767947232e-02  1.2345831848766295e-02  1.2003619297810806e-02  1.1529872493274643e-02  1.0929798870021152e-02  1.0209991546762677e-02  9.3783556207734983e-03  8.4440200809411600e-03  7.4172364467101400e-03  6.3092653709248478e-03  5.1322525489388600e-03  3.8990953564237000e-03  2.6233016971481246e-03  1.3188425834332301e-03  0.0000000000000000e+00  0.0000000000000000e+00  1.3263982690744545e-03  2.6382805872727888e-03  3.9212873355049640e-03  5.1613724209423140e-03  6.3449560972066053e-03  7.4590730585031278e-03  8.4915142529138656e-03  9.4309608846359985e-03  1.0267109113977092e-02  1.0990784021547110e-02  1.1594041483029442e-02  1.2070256705986415e-02  1.2414198311883801e-02  1.2622087004868925e-02  1.2691638052068462e-02  1.2622087004868932e-02  1.2414198311883789e-02  1.2070256705986394e-02  1.1594041483029430e-02  1.0990784021547096e-02  1.0267109113977088e-02  9.4309608846359968e-03  8.4915142529138586e-03  7.4590730585031148e-03  6.3449560972066001e-03  5.1613724209423062e-03  3.9212873355049579e-03  2.6382805872727853e-03  1.3263982690744527e-03  0.0000000000000000e+00  0.0000000000000000e+00  1.3188425834332307e-03  2.6233016971481250e-03  3.8990953564237030e-03  5.1322525489388652e-03  6.3092653709248556e-03  7.4172364467101452e-03  8.4440200809411583e-03  9.3783556207734913e-03  1.0209991546762682e-02  1.0929798870021159e-02  1.1529872493274650e-02  1.2003619297810818e-02  1.2345831848766311e-02  1.2552746767947228e-02  1.2622087004868925e-02  1.2553087439650454e-02  1.2346503470981263e-02  1.2004602472552920e-02  1.1531138235301649e-02  1.0931308743445169e-02  1.0211697852773767e-02  9.3802016438585753e-03  8.4459404058067102e-03  7.4191573644104307e-03  6.3111054001003019e-03  5.1339231057449339e-03  3.9005016132754706e-03  2.6243436738883842e-03  1.3194165127541878e-03  0.0000000000000000e+00  0.0000000000000000e+00  1.2968358374023214e-03  2.5795781336217416e-03  3.8341789117173710e-03  5.0468952301490067e-03  6.2044389745975542e-03  7.2941219904118625e-03  8.3039950264914755e-03  9.2229789930366787e-03  1.0040987079087059e-02  1.0749036335018834e-02  1.1339347404221460e-02  1.1805431190410155e-02  1.2142161374564499e-02  1.2345831848766302e-02  1.2414198311883789e-02  1.2346503470981259e-02  1.2143485507830509e-02  1.1807369696046711e-02  1.1341843284472687e-02  1.0752013989516439e-02  1.0044352656465905e-02  9.2266208513252373e-03  8.3077843255069551e-03  7.2979134522171687e-03  6.2080718635429116e-03  5.0501946205602126e-03  3.8369573260965940e-03  2.5816376432210115e-03  1.2979707153215995e-03  0.0000000000000000e+00  0.0000000000000000e+00  1.2606233039796041e-03  2.5075970714760229e-03  3.7272609715135884e-03  4.9062504804718663e-03  6.0316427026574238e-03  7.0910976312513509e-03  8.0729933599621943e-03  8.9665537915695551e-03  9.7619674347112911e-03  1.0450495938845377e-02  1.1024571093863317e-02  1.1477879119243714e-02  1.1805431190410153e-02  1.2003619297810807e-02  1.2070256705986399e-02  1.2004602472552922e-02  1.1807369696046717e-02  1.1480717381210643e-02  1.1028226034028593e-02  1.0454857319860926e-02  9.7668983298441116e-03  8.9718911974280835e-03  8.0785489837216767e-03  7.0966589036824609e-03  6.0369740929889764e-03  4.9110952168716880e-03  3.7313432976409594e-03  2.5106251885773055e-03  1.2622931507475308e-03  0.0000000000000000e+00  0.0000000000000000e+00  1.2106064763442270e-03  2.4081564158694988e-03  3.5795263340309513e-03  4.7118761693847044e-03  5.7927895575805516e-03  6.8104096805408449e-03  7.7535692599127737e-03  8.6119133049600630e-03  9.3760132711681425e-03  1.0037471342053059e-02  1.0589013618672857e-02  1.1024571093863320e-02  1.1339347404221463e-02  1.1529872493274643e-02  1.1594041483029427e-02  1.1531138235301656e-02  1.1341843284472687e-02  1.1028226034028586e-02  1.0593721324143315e-02  1.0043090690150722e-02  9.3823688357456084e-03  8.6187960345694321e-03  7.7607373448968725e-03  6.8175896710869870e-03  5.7996778301787396e-03  4.7181408814655343e-03  3.5848100508640221e-03  2.4120796307802107e-03  1.2127722610560808e-03  0.0000000000000000e+00  0.0000000000000000e+00  1.1473386618758253e-03  2.2823560338284320e-03  3.3926085776746369e-03  4.4659208196736388e-03  5.4905185715034503e-03  6.4551578853388617e-03  7.3492483931381098e-03  8.1629697274339160e-03  8.8873797660738735e-03  9.5145134942888239e-03  1.0037471342053062e-02  1.0450495938845387e-02  1.0749036335018848e-02  1.0929798870021157e-02  1.0990784021547094e-02  1.0931308743445169e-02  1.0752013989516439e-02  1.0454857319860920e-02  1.0043090690150722e-02  9.5212237259667837e-03  8.8949729782356376e-03  8.1711978366412249e-03  7.3578239414725452e-03  6.4637550776824289e-03  5.4987746560761983e-03  4.4734379844375803e-03  3.3989566052119689e-03  2.2870760249868783e-03  1.1499481829330086e-03  0.0000000000000000e+00  0.0000000000000000e+00  1.0715189131041689e-03  2.1315856706860198e-03  3.1685720717728387e-03  4.1710998833772508e-03  5.1281655858602636e-03  6.0292610190242277e-03  6.8644886893173499e-03  7.6246705509597909e-03  8.3014491131626726e-03  8.8873797660738683e-03  9.3760132711681425e-03  9.7619674347113050e-03  1.0040987079087073e-02  1.0209991546762687e-02  1.0267109113977079e-02  1.0211697852773767e-02  1.0044352656465907e-02  9.7668983298441082e-03  9.3823688357456154e-03  8.8949729782356497e-03  8.3100469841746339e-03  7.6339946146568288e-03  6.8742155920576749e-03  6.0390232647819213e-03  5.1375525489441810e-03  4.1796592834481283e-03  3.1758122112072939e-03  2.1369788517532104e-03  1.0745065535034007e-03  0.0000000000000000e+00  0.0000000000000000e+00  9.8398439473853876e-04  1.9575097423813071e-03  2.9098893179734828e-03  3.8306658372397632e-03  4.7097263964411646e-03  5.5374134630955339e-03  6.3046308327381643e-03  7.0029435170507965e-03  7.6246705509597900e-03  8.1629697274339177e-03  8.6119133049600630e-03  8.9665537915695655e-03  9.2229789930366891e-03  9.3783556207734948e-03  9.4309608846359898e-03  9.3802016438585718e-03  9.2266208513252356e-03  8.9718911974280835e-03  8.6187960345694391e-03  8.1711978366412266e-03  7.6339946146568314e-03  7.0130648659930562e-03  6.3152017774493674e-03  5.5480375299635301e-03  4.7199586651219851e-03  3.8400135711788314e-03  2.9178132290863289e-03  1.9634264234320176e-03  9.8727065800403922e-04  0.0000000000000000e+00  0.0000000000000000e+00  8.8570131710360793e-04  1.7620492498839177e-03  2.6194139658184128e-03  3.4483725238617499e-03  4.2398127644603196e-03  4.9850333512984181e-03  5.6758391103487373e-03  6.3046308327381617e-03  6.8644886893173525e-03  7.3492483931381055e-03  7.7535692599127728e-03  8.0729933599621925e-03  8.3039950264914720e-03  8.4440200809411531e-03  8.4915142529138569e-03  8.4459404058067084e-03  8.3077843255069551e-03  8.0785489837216715e-03  7.7607373448968760e-03  7.3578239414725443e-03  6.8742155920576689e-03  6.3152017774493691e-03  5.6868953179876804e-03  4.9961641119620750e-03  4.2505548001135164e-03  3.4582093189962850e-03  2.6277753996985774e-03  1.7683121576023476e-03  8.8919198906954513e-04  0.0000000000000000e+00  0.0000000000000000e+00  7.7775460738826910e-04  1.5473611275660445e-03  2.3003499200286827e-03  3.0284342406113685e-03  3.7236018730211701e-03  4.3782029328234421e-03  4.9850333512984155e-03  5.5374134630955295e-03  6.0292610190242251e-03  6.4551578853388530e-03  6.8104096805408380e-03  7.0910976312513413e-03  7.2941219904118539e-03  7.4172364467101322e-03  7.4590730585031078e-03  7.4191573644104272e-03  7.2979134522171670e-03  7.0966589036824609e-03  6.8175896710869878e-03  6.4637550776824280e-03  6.0390232647819127e-03  5.5480375299635284e-03  4.9961641119620750e-03  4.3894320785449956e-03  3.7344660672563477e-03  3.0384127226826007e-03  2.3088617794182723e-03  1.5537628691050557e-03  7.8133927910403799e-04  0.0000000000000000e+00  0.0000000000000000e+00  6.6133655683039245e-04  1.3158154277736948e-03  1.9562170386729361e-03  2.5754801446113132e-03  3.1667798672454718e-03  3.7236018730211688e-03  4.2398127644603153e-03  4.7097263964411620e-03  5.1281655858602627e-03  5.4905185715034433e-03  5.7927895575805438e-03  6.0316427026574117e-03  6.2044389745975429e-03  6.3092653709248409e-03  6.3449560972065923e-03  6.3111054001002975e-03  6.2080718635429124e-03  6.0369740929889790e-03  5.7996778301787439e-03  5.4987746560762009e-03  5.1375525489441827e-03  4.7199586651219877e-03  4.2505548001135164e-03  3.7344660672563447e-03  3.1773234044477228e-03  2.5852005970463990e-03  1.9645466101510683e-03  1.3221141958009090e-03  6.6488602741608378e-04  0.0000000000000000e+00  0.0000000000000000e+00  5.3773481602482096e-04  1.0699708901170948e-03  1.5908140160555851e-03  2.0945045899895972e-03  2.5754801446113127e-03  3.0284342406113698e-03  3.4483725238617499e-03  3.8306658372397593e-03  4.1710998833772482e-03  4.4659208196736345e-03  4.7118761693846984e-03  4.9062504804718620e-03  5.0468952301490023e-03  5.1322525489388548e-03  5.1613724209423019e-03  5.1339231057449322e-03  5.0501946205602109e-03  4.9110952168716889e-03  4.7181408814655377e-03  4.4734379844375829e-03  4.1796592834481309e-03  3.8400135711788332e-03  3.4582093189962