<?xml version="1.0"?>
<VTKFile type="UnstructuredGrid"  version="0.1"  >
<UnstructuredGrid>
<Piece  NumberOfPoints="961" NumberOfCells="1800">
<Points>
<DataArray  type="Float64"  NumberOfComponents="3"  format="ascii">-2 -2 0  -1.866666666666667 -2 0  -1.733333333333333 -2 0  -1.6 -2 0  -1.466666666666667 -2 0  -1.333333333333333 -2 0  -1.2 -2 0  -1.066666666666667 -2 0  -0.9333333333333333 -2 0  -0.8 -2 0  -0.6666666666666667 -2 0  -0.5333333333333334 -2 0  -0.3999999999999999 -2 0  -0.2666666666666666 -2 0  -0.1333333333333333 -2 0  0 -2 0  0.1333333333333333 -2 0  0.2666666666666666 -2 0  0.3999999999999999 -2 0  0.5333333333333332 -2 0  0.6666666666666665 -2 0  0.7999999999999998 -2 0  0.9333333333333331 -2 0  1.066666666666667 -2 0  1.2 -2 0  1.333333333333333 -2 0  1.466666666666667 -2 0  1.6 -2 0  1.733333333333333 -2 0  1.866666666666667 -2 0  2 -2 0  -2 -1.866666666666667 0  -1.866666666666667 -1.866666666666667 0  -1.733333333333333 -1.866666666666667 0  -1.6 -1.866666666666667 0  -1.466666666666667 -1.866666666666667 0  -1.333333333333333 -1.866666666666667 0  -1.2 -1.866666666666667 0  -1.066666666666667 -1.866666666666667 0  -0.9333333333333333 -1.866666666666667 0  -0.8 -1.866666666666667 0  -0.6666666666666667 -1.866666666666667 0  -0.5333333333333334 -1.866666666666667 0  -0.3999999999999999 -1.866666666666667 0  -0.2666666666666666 -1.866666666666667 0  -0.1333333333333333 -1.866666666666667 0  0 -1.866666666666667 0  0.1333333333333333 -1.866666666666667 0  0.2666666666666666 -1.866666666666667 0  0.3999999999999999 -1.866666666666667 0  0.5333333333333332 -1.866666666666667 0  0.6666666666666665 -1.866666666666667 0  0.7999999999999998 -1.866666666666667 0  0.9333333333333331 -1.866666666666667 0  1.066666666666667 -1.866666666666667 0  1.2 -1.866666666666667 0  1.333333333333333 -1.866666666666667 0  1.466666666666667 -1.866666666666667 0  1.6 -1.866666666666667 0  1.733333333333333 -1.866666666666667 0  1.866666666666667 -1.866666666666667 0  2 -1.866666666666667 0  -2 -1.733333333333333 0  -1.866666666666667 -1.733333333333333 0  -1.733333333333333 -1.733333333333333 0  -1.6 -1.733333333333333 0  -1.466666666666667 -1.733333333333333 0  -1.333333333333333 -1.733333333333333 0  -1.2 -1.733333333333333 0  -1.066666666666667 -1.733333333333333 0  -0.9333333333333333 -1.733333333333333 0  -0.8 -1.733333333333333 0  -0.6666666666666667 -1.733333333333333 0  -0.5333333333333334 -1.733333333333333 0  -0.3999999999999999 -1.733333333333333 0  -0.2666666666666666 -1.733333333333333 0  -0.1333333333333333 -1.733333333333333 0  0 -1.733333333333333 0  0.1333333333333333 -1.733333333333333 0  0.2666666666666666 -1.733333333333333 0  0.3999999999999999 -1.733333333333333 0  0.5333333333333332 -1.733333333333333 0  0.6666666666666665 -1.733333333333333 0  0.7999999999999998 -1.733333333333333 0  0.9333333333333331 -1.733333333333333 0  1.066666666666667 -1.733333333333333 0  1.2 -1.733333333333333 0  1.333333333333333 -1.733333333333333 0  1.466666666666667 -1.733333333333333 0  1.6 -1.733333333333333 0  1.733333333333333 -1.733333333333333 0  1.866666666666667 -1.733333333333333 0  2 -1.733333333333333 0  -2 -1.6 0  -1.866666666666667 -1.6 0  -1.733333333333333 -1.6 0  -1.6 -1.6 0  -1.466666666666667 -1.6 0  -1.333333333333333 -1.6 0  -1.2 -1.6 0  -1.066666666666667 -1.6 0  -0.9333333333333333 -1.6 0  -0.8 -1.6 0  -0.6666666666666667 -1.6 0  -0.5333333333333334 -1.6 0  -0.3999999999999999 -1.6 0  -0.2666666666666666 -1.6 0  -0.1333333333333333 -1.6 0  0 -1.6 0  0.1333333333333333 -1.6 0  0.2666666666666666 -1.6 0  0.3999999999999999 -1.6 0  0.5333333333333332 -1.6 0  0.6666666666666665 -1.6 0  0.7999999999999998 -1.6 0  0.9333333333333331 -1.6 0  1.066666666666667 -1.6 0  1.2 -1.6 0  1.333333333333333 -1.6 0  1.466666666666667 -1.6 0  1.6 -1.6 0  1.733333333333333 -1.6 0  1.866666666666667 -1.6 0  2 -1.6 0  -2 -1.466666666666667 0  -1.866666666666667 -1.466666666666667 0  -1.733333333333333 -1.466666666666667 0  -1.6 -1.466666666666667 0  -1.466666666666667 -1.466666666666667 0  -1.333333333333333 -1.466666666666667 0  -1.2 -1.466666666666667 0  -1.066666666666667 -1.466666666666667 0  -0.9333333333333333 -1.466666666666667 0  -0.8 -1.466666666666667 0  -0.6666666666666667 -1.466666666666667 0  -0.5333333333333334 -1.466666666666667 0  -0.3999999999999999 -1.466666666666667 0  -0.2666666666666666 -1.466666666666667 0  -0.1333333333333333 -1.466666666666667 0  0 -1.466666666666667 0  0.1333333333333333 -1.466666666666667 0  0.2666666666666666 -1.466666666666667 0  0.3999999999999999 -1.466666666666667 0  0.5333333333333332 -1.466666666666667 0  0.6666666666666665 -1.466666666666667 0  0.7999999999999998 -1.466666666666667 0  0.9333333333333331 -1.466666666666667 0  1.066666666666667 -1.466666666666667 0  1.2 -1.466666666666667 0  1.333333333333333 -1.466666666666667 0  1.466666666666667 -1.466666666666667 0  1.6 -1.466666666666667 0  1.733333333333333 -1.466666666666667 0  1.866666666666667 -1.466666666666667 0  2 -1.466666666666667 0  -2 -1.333333333333333 0  -1.866666666666667 -1.333333333333333 0  -1.733333333333333 -1.333333333333333 0  -1.6 -1.333333333333333 0  -1.466666666666667 -1.333333333333333 0  -1.333333333333333 -1.333333333333333 0  -1.2 -1.333333333333333 0  -1.066666666666667 -1.333333333333333 0  -0.9333333333333333 -1.333333333333333 0  -0.8 -1.333333333333333 0  -0.6666666666666667 -1.333333333333333 0  -0.5333333333333334 -1.333333333333333 0  -0.3999999999999999 -1.333333333333333 0  -0.2666666666666666 -1.333333333333333 0  -0.1333333333333333 -1.333333333333333 0  0 -1.333333333333333 0  0.1333333333333333 -1.333333333333333 0  0.2666666666666666 -1.333333333333333 0  0.3999999999999999 -1.333333333333333 0  0.5333333333333332 -1.333333333333333 0  0.6666666666666665 -1.333333333333333 0  0.7999999999999998 -1.333333333333333 0  0.9333333333333331 -1.333333333333333 0  1.066666666666667 -1.333333333333333 0  1.2 -1.333333333333333 0  1.333333333333333 -1.333333333333333 0  1.466666666666667 -1.333333333333333 0  1.6 -1.333333333333333 0  1.733333333333333 -1.333333333333333 0  1.866666666666667 -1.333333333333333 0  2 -1.333333333333333 0  -2 -1.2 0  -1.866666666666667 -1.2 0  -1.733333333333333 -1.2 0  -1.6 -1.2 0  -1.466666666666667 -1.2 0  -1.333333333333333 -1.2 0  -1.2 -1.2 0  -1.066666666666667 -1.2 0  -0.9333333333333333 -1.2 0  -0.8 -1.2 0  -0.6666666666666667 -1.2 0  -0.5333333333333334 -1.2 0  -0.3999999999999999 -1.2 0  -0.2666666666666666 -1.2 0  -0.1333333333333333 -1.2 0  0 -1.2 0  0.1333333333333333 -1.2 0  0.2666666666666666 -1.2 0  0.3999999999999999 -1.2 0  0.5333333333333332 -1.2 0  0.6666666666666665 -1.2 0  0.7999999999999998 -1.2 0  0.9333333333333331 -1.2 0  1.066666666666667 -1.2 0  1.2 -1.2 0  1.333333333333333 -1.2 0  1.466666666666667 -1.2 0  1.6 -1.2 0  1.733333333333333 -1.2 0  1.866666666666667 -1.2 0  2 -1.2 0  -2 -1.066666666666667 0  -1.866666666666667 -1.066666666666667 0  -1.733333333333333 -1.066666666666667 0  -1.6 -1.066666666666667 0  -1.466666666666667 -1.066666666666667 0  -1.333333333333333 -1.066666666666667 0  -1.2 -1.066666666666667 0  -1.066666666666667 -1.066666666666667 0  -0.9333333333333333 -1.066666666666667 0  -0.8 -1.066666666666667 0  -0.6666666666666667 -1.066666666666667 0  -0.5333333333333334 -1.066666666666667 0  -0.3999999999999999 -1.066666666666667 0  -0.2666666666666666 -1.066666666666667 0  -0.1333333333333333 -1.066666666666667 0  0 -1.066666666666667 0  0.1333333333333333 -1.066666666666667 0  0.2666666666666666 -1.066666666666667 0  0.3999999999999999 -1.066666666666667 0  0.5333333333333332 -1.066666666666667 0  0.6666666666666665 -1.066666666666667 0  0.7999999999999998 -1.066666666666667 0  0.9333333333333331 -1.066666666666667 0  1.066666666666667 -1.066666666666667 0  1.2 -1.066666666666667 0  1.333333333333333 -1.066666666666667 0  1.466666666666667 -1.066666666666667 0  1.6 -1.066666666666667 0  1.733333333333333 -1.066666666666667 0  1.866666666666667 -1.066666666666667 0  2 -1.066666666666667 0  -2 -0.9333333333333333 0  -1.866666666666667 -0.9333333333333333 0  -1.733333333333333 -0.9333333333333333 0  -1.6 -0.9333333333333333 0  -1.466666666666667 -0.9333333333333333 0  -1.333333333333333 -0.9333333333333333 0  -1.2 -0.9333333333333333 0  -1.066666666666667 -0.9333333333333333 0  -0.9333333333333333 -0.9333333333333333 0  -0.8 -0.9333333333333333 0  -0.6666666666666667 -0.9333333333333333 0  -0.5333333333333334 -0.9333333333333333 0  -0.3999999999999999 -0.9333333333333333 0  -0.2666666666666666 -0.9333333333333333 0  -0.1333333333333333 -0.9333333333333333 0  0 -0.9333333333333333 0  0.1333333333333333 -0.9333333333333333 0  0.2666666666666666 -0.9333333333333333 0  0.3999999999999999 -0.9333333333333333 0  0.5333333333333332 -0.9333333333333333 0  0.6666666666666665 -0.9333333333333333 0  0.7999999999999998 -0.9333333333333333 0  0.9333333333333331 -0.9333333333333333 0  1.066666666666667 -0.9333333333333333 0  1.2 -0.9333333333333333 0  1.333333333333333 -0.9333333333333333 0  1.466666666666667 -0.9333333333333333 0  1.6 -0.9333333333333333 0  1.733333333333333 -0.9333333333333333 0  1.866666666666667 -0.9333333333333333 0  2 -0.9333333333333333 0  -2 -0.8 0  -1.866666666666667 -0.8 0  -1.733333333333333 -0.8 0  -1.6 -0.8 0  -1.466666666666667 -0.8 0  -1.333333333333333 -0.8 0  -1.2 -0.8 0  -1.066666666666667 -0.8 0  -0.9333333333333333 -0.8 0  -0.8 -0.8 0  -0.6666666666666667 -0.8 0  -0.5333333333333334 -0.8 0  -0.3999999999999999 -0.8 0  -0.2666666666666666 -0.8 0  -0.1333333333333333 -0.8 0  0 -0.8 0  0.1333333333333333 -0.8 0  0.2666666666666666 -0.8 0  0.3999999999999999 -0.8 0  0.5333333333333332 -0.8 0  0.6666666666666665 -0.8 0  0.7999999999999998 -0.8 0  0.9333333333333331 -0.8 0  1.066666666666667 -0.8 0  1.2 -0.8 0  1.333333333333333 -0.8 0  1.466666666666667 -0.8 0  1.6 -0.8 0  1.733333333333333 -0.8 0  1.866666666666667 -0.8 0  2 -0.8 0  -2 -0.6666666666666667 0  -1.866666666666667 -0.
[...]
<PointData  Scalars="f_468"> 
<DataArray  type="Float64"  Name="f_468"  format="ascii">0.0000000000000000e+00  0.0000000000000000e+00  0.0000000000000000e+00  0.0000000000000000e+00  0.0000000000000000e+00  0.0000000000000000e+00  0.0000000000000000e+00  0.0000000000000000e+00  0.0000000000000000e+00  0.0000000000000000e+00  0.0000000000000000e+00  0.0000000000000000e+00  0.0000000000000000e+00  0.0000000000000000e+00  0.0000000000000000e+00  0.0000000000000000e+00  0.0000000000000000e+00  0.0000000000000000e+00  0.0000000000000000e+00  0.0000000000000000e+00  0.0000000000000000e+00  0.0000000000000000e+00  0.0000000000000000e+00  0.0000000000000000e+00  0.0000000000000000e+00  0.0000000000000000e+00  0.0000000000000000e+00  0.0000000000000000e+00  0.0000000000000000e+00  0.0000000000000000e+00  0.0000000000000000e+00  0.0000000000000000e+00  5.6825724405852628e-04  1.1330231575108166e-03  1.6911981980299740e-03  2.2390234034141325e-03  2.7719660687238433e-03  3.2846545170792632e-03  3.7709042583202188e-03  4.2238483514226120e-03  4.6361681760375209e-03  5.0004085100229982e-03  5.3093512152065413e-03  5.5564150933647364e-03  5.7360460339036029e-03  5.8440617365572607e-03  5.8779190536650391e-03  5.8368789979741237e-03  5.7220540035774706e-03  5.5363331353441431e-03  5.2841924719681296e-03  4.9714086532998804e-03  4.6047024889440489e-03  4.1913456899672344e-03  3.7387666339628095e-03  3.2541903962114171e-03  2.7443442546828331e-03  2.2152530738959635e-03  1.6721403963833445e-03  1.1194424383312058e-03  5.6093716947370413e-04  0.0000000000000000e+00  0.0000000000000000e+00  1.1330231575108168e-03  2.2593316180782330e-03  3.3725636118926354e-03  4.4651770783643886e-03  5.5281271889174189e-03  6.5507086827505849e-03  7.5205983873206659e-03  8.4241108811974798e-03  9.2466563273628823e-03  9.9733674269644832e-03  1.0589843999185781e-02  1.1082950430846018e-02  1.1441594397603236e-02  1.1657415548109149e-02  1.1725320296603451e-02  1.1643812789974492e-02  1.1415091116681222e-02  1.1044899969884661e-02  1.0542153985851887e-02  9.9183674836289745e-03  9.1869441442817418e-03  8.3623925200603175e-03  7.4595389972900846e-03  6.4928085154816921e-03  5.4756352865375744e-03  4.4200519920562604e-03  3.3364881149285652e-03  2.2337883227010165e-03  1.1194424383312060e-03  0.0000000000000000e+00  0.0000000000000000e+00  1.6911981980299742e-03  3.3725636118926362e-03  5.0344890146043989e-03  6.6656783676992508e-03  8.2526256686857903e-03  9.7793597221668953e-03  1.1227497553278844e-02  1.2576620441832703e-02  1.3804953977422329e-02  1.4890301983812748e-02  1.5811157170484317e-02  1.6547891741338638e-02  1.7083920990162507e-02  1.7406733295288614e-02  1.7508690987105720e-02  1.7387527284127666e-02  1.7046492822711385e-02  1.6494138358419074e-02  1.5743754592355226e-02  1.4812522235980995e-02  1.3720452097002095e-02  1.2489213495270209e-02  1.1140957954227379e-02  9.6972431835488666e-03  8.1781503021280087e-03  6.6016664928180467e-03  4.9833780825721038e-03  3.3364881149285652e-03  1.6721403963833449e-03  0.0000000000000000e+00  0.0000000000000000e+00  2.2390234034141325e-03  4.4651770783643904e-03  6.6656783676992534e-03  8.8255500521301055e-03  1.0926912795118824e-02  1.2948634156198138e-02  1.4866390491074166e-02  1.6653158880563214e-02  1.8280113574338515e-02  1.9717860144354126e-02  2.0937905058594334e-02  2.1914232470086746e-02  2.2624846478757139e-02  2.3053137550342818e-02  2.3188946330666069e-02  2.3029225453733867e-02  2.2578237406844340e-02  2.1847270276722393e-02  2.0853898756836825e-02  1.9620860458609890e-02  1.8174652989221378e-02  1.6543981908116425e-02  1.4758201218231440e-02  1.2845885563385012e-02  1.0833657324048528e-02  8.7453641937738531e-03  6.6016664928180433e-03  4.4200519920562587e-03  2.2152530738959639e-03  0.0000000000000000e+00  0.0000000000000000e+00  2.7719660687238437e-03  5.5281271889174215e-03  8.2526256686857920e-03  1.0926912795118829e-02  1.3528863361075182e-02  1.6032331871079341e-02  1.8407221514571040e-02  2.0620087292899960e-02  2.2635241649764742e-02  2.4416279870707849e-02  2.5927898616372378e-02  2.7137848832985818e-02  2.8018847430868694e-02  2.8550272528833551e-02  2.8719484960584029e-02  2.8522652517660174e-02  2.7964999735995564e-02  2.7060460215339331e-02  2.5830764922173604e-02  2.4304052855215346e-02  2.2513134448921401e-02  2.0493568765747462e-02  1.8281729966661005e-02  1.5913035582433347e-02  1.3420489370749538e-02  1.0833657324048533e-02  8.1781503021280087e-03  5.4756352865375744e-03  2.7443442546828327e-03  0.0000000000000000e+00  0.0000000000000000e+00  3.2846545170792663e-03  6.5507086827505884e-03  9.7793597221668988e-03  1.2948634156198138e-02  1.6032331871079341e-02  1.8999492747936633e-02  2.1814471387540352e-02  2.4437645918808652e-02  2.6826723748449993e-02  2.8938546455399977e-02  3.0731243918281529e-02  3.2166549580459732e-02  3.3212068635344205e-02  3.3843291231728537e-02  3.4045163854705601e-02  3.3813071947965269e-02  3.3153141686400045e-02  3.2081833020684639e-02  3.0624863098314078e-02  2.8815562022327223e-02  2.6692815223646801e-02  2.4298783270350680e-02  2.1676607234614429e-02  1.8868304373268047e-02  1.5913035582433340e-02  1.2845885563385007e-02  9.6972431835488631e-03  6.4928085154816895e-03  3.2541903962114162e-03  0.0000000000000000e+00  0.0000000000000000e+00  3.7709042583202197e-03  7.5205983873206676e-03  1.1227497553278844e-02  1.4866390491074181e-02  1.8407221514571057e-02  2.1814471387540366e-02  2.5047236339569009e-02  2.8060035852971680e-02  3.0804307158461424e-02  3.3230474585283672e-02  3.5290421923143772e-02  3.6940151935346541e-02  3.8142393857732271e-02  3.8868919873691302e-02  3.9102355541612420e-02  3.8837314830958578e-02  3.8080753315851590e-02  3.6851506806032885e-02  3.5179059688715465e-02  3.3101659583248524e-02  3.0663955186763951e-02  2.7914376385920970e-02  2.4902495798109728e-02  2.1676607234614446e-02  1.8281729966661022e-02  1.4758201218231445e-02  1.1140957954227379e-02  7.4595389972900838e-03  3.7387666339628082e-03  0.0000000000000000e+00  0.0000000000000000e+00  4.2238483514226155e-03  8.4241108811974868e-03  1.2576620441832715e-02  1.6653158880563242e-02  2.0620087292899981e-02  2.4437645918808669e-02  2.8060035852971680e-02  3.1436317721172814e-02  3.4512080914849107e-02  3.7231758640916345e-02  3.9541396659821294e-02  4.1391634055076482e-02  4.2740628025319589e-02  4.3556654615504370e-02  4.3820143950614426e-02  4.3524959539283030e-02  4.2678801580377186e-02  4.1302696806275727e-02  3.9429623747488166e-02  3.7102403511838876e-02  3.4371053939491213e-02  3.1289852539503962e-02  2.7914376385920987e-02  2.4298783270350708e-02  2.0493568765747486e-02  1.6543981908116446e-02  1.2489213495270216e-02  8.3623925200603209e-03  4.1913456899672335e-03  0.0000000000000000e+00  0.0000000000000000e+00  4.6361681760375278e-03  9.2466563273628979e-03  1.3804953977422355e-02  1.8280113574338550e-02  2.2635241649764777e-02  2.6826723748450031e-02  3.0804307158461438e-02  3.4512080914849141e-02  3.7890302936893737e-02  4.0877938026048610e-02  4.3415696281723683e-02  4.5449306871410931e-02  4.6932732881924670e-02  4.7831032611019363e-02  4.8122601653527601e-02  4.7800585931461595e-02  4.6873332956492320e-02  4.5363839288750721e-02  4.3308247056158725e-02  4.0753531749270759e-02  3.7754598173164289e-02  3.4371053939491247e-02  3.0663955186764017e-02  2.6692815223646863e-02  2.2513134448921449e-02  1.8174652989221426e-02  1.3720452097002117e-02  9.1869441442817557e-03  4.6047024889440541e-03  0.0000000000000000e+00  0.0000000000000000e+00  5.0004085100230087e-03  9.9733674269645040e-03  1.4890301983812795e-02  1.9717860144354182e-02  2.4416279870707925e-02  2.8938546455400029e-02  3.3230474585283706e-02  3.7231758640916365e-02  4.0877938026048624e-02  4.4103131280707350e-02  4.6843312516374011e-02  4.9039844520600701e-02  5.0642951058129840e-02  5.1614810180449146e-02  5.1931981344557121e-02  5.1586939107904010e-02  5.0588569254039414e-02  4.8961581009313977e-02  4.6744891493588403e-02  4.3989135150974391e-02  4.0753531749270759e-02  3.7102403511838924e-02  3.3101659583248594e-02  2.8815562022327296e-02  2.4304052855215398e-02  1.9620860458609939e-02  1.4812522235981024e-02  9.9183674836289936e-03  4.9714086532998882e-03  0.0000000000000000e+00  0.0000000000000000e+00  5.3093512152065552e-03  1.0589843999185807e-02  1.5811157170484369e-02  2.0937905058594410e-02  2.5927898616372468e-02  3.0731243918281595e-02  3.5290421923143821e-02  3.9541396659821322e-02  4.3415696281723717e-02  4.6843312516374060e-02  4.9756178643142246e-02  5.2091922988498761e-02  5.3797560801904946e-02  5.4832786269134154e-02  5.5172559010954268e-02  5.4808742848857041e-02  5.3750642710759959e-02  5.2024389395700844e-02  4.9671230858817812e-02  4.6744891493588445e-02  4.3308247056158773e-02  3.9429623747488235e-02  3.5179059688715542e-02  3.0624863098314199e-02  2.5830764922173680e-02  2.0853898756836887e-02  1.5743754592355254e-02  1.0542153985851909e-02  5.2841924719681391e-03  0.0000000000000000e+00  0.0000000000000000e+00  5.5564150933647537e-03  1.1082950430846054e-02  1.6547891741338701e-02  2.1914232470086836e-02  2.7137848832985929e-02  3.2166549580459843e-02  3.6940151935346603e-02  4.1391634055076551e-02  4.5449306871411001e-02  4.9039844520600707e-02  5.2091922988498775e-02  5.4540150207773239e-02  5.6328934772370588e-02  5.7415938906762172e-02  5.7774795098227694e-02  5.7396831925263736e-02  5.6291646656831160e-02  5.4486470860794160e-02  5.2024389395700851e-02  4.8961581009313956e-02  4.5363839288750728e-02  4.1302696806275789e-02  3.6851506806032948e-02  3.2081833020684729e-02  2.7060460215339390e-02  2.1847270276722435e-02  1.6494138358419095e-02  1.1044899969884676e-02  5.5363331353441491e-03  0.0000000000000000e+00  0.0000000000000000e+00  5.7360460339036246e-03  1.1441594397603281e-02  1.7083920990162586e-02  2.2624846478757260e-02  2.8018847430868851e-02  3.3212068635344413e-02  3.8142393857732423e-02  4.2740628025319728e-02  4.6932732881924774e-02  5.0642951058129881e-02  5.3797560801905009e-02  5.6328934772370665e-02  5.8179538692705604e-02  5.9305503694755866e-02  5.9679440693250659e-02  5.9292233108301291e-02  5.8153639103909638e-02  5.6291646656831167e-02  5.3750642710759945e-02  5.0588569254039401e-02  4.6873332956492347e-02  4.2678801580377249e-02  3.8080753315851659e-02  3.3153141686400135e-02  2.7964999735995626e-02  2.2578237406844393e-02  1.7046492822711420e-02  1.1415091116681243e-02  5.7220540035774784e-03  0.0000000000000000e+00  0.0000000000000000e+00  5.8440617365572885e-03  1.1657415548109208e-02  1.7406733295288704e-02  2.3053137550342963e-02  2.8550272528833753e-02  3.3843291231728745e-02  3.8868919873691489e-02  4.3556654615504543e-02  4.7831032611019481e-02  5.1614810180449264e-02  5.4832786269134279e-02  5.7415938906762262e-02  5.9305503694755915e-02  6.0456620952823725e-02  6.0841212938987269e-02  6.0449821518847500e-02  5.9292233108301319e-02  5.7396831925263743e-02  5.4808742848856992e-02  5.1586939107904017e-02  4.7800585931461616e-02  4.3524959539283092e-02  3.8837314830958633e-02  3.3813071947965345e-02  2.8522652517660230e-02  2.3029225453733912e-02  1.7387527284127700e-02  1.1643812789974511e-02  5.8368789979741341e-03  0.0000000000000000e+00  0.0000000000000000e+00  5.8779190536650755e-03  1.1725320296603524e-02  1.7508690987105825e-02  2.3188946330666236e-02  2.8719484960584237e-02  3.4045163854705830e-02  3.9102355541612635e-02  4.3820143950614655e-02  4.8122601653527781e-02  5.1931981344557322e-02  5.5172559010954469e-02  5.7774795098227874e-02  5.9679440693250790e-02  6.0841212938987317e-02  6.1231698499113876e-02  6.0841212938987289e-02  5.9679440693250679e-02  5.7774795098227701e-02  5.5172559010954275e-02  5.1931981344557135e-02  4.8122601653527601e-02  4.3820143950614523e-02  3.9102355541612496e-02  3.4045163854705685e-02  2.8719484960584095e-02  2.3188946330666111e-02  1.7508690987105738e-02  1.1725320296603468e-02  5.8779190536650460e-03  0.0000000000000000e+00  0.0000000000000000e+00  5.8368789979741644e-03  1.1643812789974575e-02  1.7387527284127794e-02  2.3029225453734040e-02  2.8522652517660386e-02  3.3813071947965491e-02  3.8837314830958779e-02  4.3524959539283252e-02  4.7800585931461796e-02  5.1586939107904239e-02  5.4808742848857256e-02  5.7396831925263979e-02  5.9292233108301520e-02  6.0449821518847653e-02  6.0841212938987310e-02  6.0456620952823704e-02  5.9305503694755873e-02  5.7415938906762144e-02  5.4832786269134133e-02  5.1614810180449153e-02  4.7831032611019390e-02  4.3556654615504439e-02  3.8868919873691378e-02  3.3843291231728613e-02  2.8550272528833607e-02  2.3053137550342852e-02  1.7406733295288624e-02  1.1657415548109154e-02  5.8440617365572633e-03  0.0000000000000000e+00  0.0000000000000000e+00  5.7220540035775105e-03  1.1415091116681306e-02  1.7046492822711510e-02  2.2578237406844521e-02  2.7964999735995765e-02  3.3153141686400281e-02  3.8080753315851805e-02  4.2678801580377415e-02  4.6873332956492562e-02  5.0588569254039643e-02  5.3750642710760230e-02  5.6291646656831472e-02  5.8153639103909888e-02  5.9292233108301513e-02  5.9679440693250776e-02  5.9305503694755915e-02  5.8179538692705625e-02  5.6328934772370623e-02  5.3797560801904960e-02  5.0642951058129881e-02  4.6932732881924712e-02  4.2740628025319666e-02  3.8142393857732347e-02  3.3212068635344288e-02  2.8018847430868739e-02  2.2624846478757166e-02  1.7083920990162510e-02  1.1441594397603236e-02  5.7360460339036046e-03  0.0000000000000000e+00  0.0000000000000000e+00  5.5363331353441847e-03  1.1044899969884749e-02  1.6494138358419203e-02  2.1847270276722567e-02  2.7060460215339550e-02  3.2081833020684881e-02  3.6851506806033101e-02  4.1302696806275969e-02  4.5363839288750984e-02  4.8961581009314248e-02  5.2024389395701143e-02  5.4486470860794473e-02  5.6291646656831493e-02  5.7396831925263965e-02  5.7774795098227853e-02  5.7415938906762276e-02  5.6328934772370685e-02  5.4540150207773273e-02  5.2091922988498761e-02  4.9039844520600701e-02  4.5449306871410966e-02  4.1391634055076530e-02  3.6940151935346589e-02  3.2166549580459773e-02  2.7137848832985843e-02  2.1914232470086770e-02  1.6547891741338645e-02  1.1082950430846021e-02  5.5564150933647373e-03  0.0000000000000000e+00  0.0000000000000000e+00  5.2841924719681721e-03  1.0542153985851975e-02  1.5743754592355347e-02  2.0853898756836995e-02  2.5830764922173809e-02  3.0624863098314331e-02  3.5179059688715701e-02  3.9429623747488408e-02  4.3308247056158981e-02  4.6744891493588694e-02  4.9671230858818097e-02  5.2024389395701136e-02  5.3750642710760251e-02  5.4808742848857256e-02  5.5172559010954483e-02  5.4832786269134300e-02  5.3797560801905057e-02  5.2091922988498796e-02  4.9756178643142260e-02  4.6843312516374011e-02  4.3415696281723704e-02  3.9541396659821301e-02  3.5290421923143800e-02  3.0731243918281536e-02  2.5927898616372382e-02  2.0937905058594358e-02  1.5811157170484327e-02  1.0589843999185774e-02  5.3093512152065396e-03  0.0000000000000000e+00  0.0000000000000000e+00  4.9714086532999203e-03  9.9183674836290578e-03  1.4812522235981116e-02  1.9620860458610057e-02  2.4304052855215565e-02  2.8815562022327459e-02  3.3101659583248760e-02  3.7102403511839126e-02  4.0753531749271002e-02  4.3989135150974669e-02  4.6744891493588722e-02  4.8961581009314269e-02  5.0588569254039706e-02  5.1586939107904288e-02  5.1931981344557364e-02  5.1614810180449340e-02  5.0642951058130006e-02  4.9039844520600784e-02  4.6843312516374074e-02  4.4103131280707412e-02  4.0877938026048645e-02  3.7231758640916345e-02  3.3230474585283727e-02  2.8938546455400012e-02  2.4416279870707869e-02  1.9717860144354150e-02  1.4890301983812764e-02  9.9733674269644884e-03  5.0004085100229974e-03  0.0000000000000000e+00  0.0000000000000000e+00  4.6047024889440836e-03  9.1869441442818181e-03  1.3720452097002201e-02  1.8174652989221541e-02  2.2513134448921602e-02  2.6692815223647026e-02  3.0663955186764204e-02  3.4371053939491462e-02  3.7754598173164532e-02  4.0753531749271002e-02  4.3308247056159009e-02  4.5363839288751019e-02  4.6873332956492653e-02  4.7800585931461921e-02  4.8122601653527823e-02  4.7831032611019557e-02  4.6932732881924885e-02  4.5449306871411084e-02  4.3415696281723787e-02  4.0877938026048714e-02  3.7890302936893792e-02  3.4512080914849141e-02  3.0804307158461473e-02  2.6826723748450049e-02  2.2635241649764767e-02  1.8280113574338543e-02  1.3804953977422344e-02  9.2466563273628909e-03  4.6361681760375235e-03  0.0000000000000000e+00  0.0000000000000000e+00  4.1913456899672647e-03  8.3623925200603817e-03  1.2489213495270308e-02  1.6543981908116564e-02  2.0493568765747625e-02  2.4298783270350868e-02  2.7914376385921178e-02  3.1289852539504170e-02  3.4371053939491449e-02  3.7102403511839140e-02  3.9429623747488436e-02  4.1302696806276032e-02  4.2678801580377519e-02  4.3524959539283349e-02  4.3820143950614725e-02  4.3556654615504620e-02  4.2740628025319825e-02  4.1391634055076648e-02  3.9541396659821391e-02  3.7231758640916421e-02  3.4512080914849162e-02  3.1436317721172842e-02  2.8060035852971704e-02  2.4437645918808690e-02  2.0620087292899984e-02  1.6653158880563242e-02  1.2576620441832718e-02  8.4241108811974868e-03  4.2238483514226155e-03  0.0000000000000000e+00  0.0000000000000000e+00  3.7387666339628364e-03  7.4595389972901384e-03  1.1140957954227457e-02  1.4758201218231551e-02  1.8281729966661147e-02  2.1676607234614575e-02  2.4902495798109870e-02  2.7914376385921150e-02  3.0663955186764184e-02  3.3101659583248767e-02  3.5179059688715750e-02  3.6851506806033149e-02  3.8080753315851860e-02  3.8837314830958827e-02  3.9102355541612663e-02  3.8868919873691510e-02  3.8142393857732458e-02  3.6940151935346666e-02  3.5290421923143855e-02  3.3230474585283748e-02  3.0804307158461480e-02  2.8060035852971708e-02  2.5047236339569023e-02  2.1814471387540359e-02  1.8407221514571043e-02  1.4866390491074171e-02  1.1227497553278842e-02  7.5205983873206624e-03  3.7709042583202179e-03  0.0000000000000000e+00  0.0000000000000000e+00  3.2541903962114401e-03  6.4928085154817390e-03  9.6972431835489360e-03  1.2845885563385106e-02  1.5913035582433468e-02  1.8868304373268172e-02  2.1676607234614557e-02  2.4298783270350829e-02  2.6692815223646995e-02  2.8815562022327452e-02  3.0624863098314362e-02  3.2081833020684909e-02  3.3153141686400323e-02  3.3813071947965512e-02  3.4045163854705830e-02  3.3843291231728752e-02  3.3212068635344413e-02  3.2166549580459877e-02  3.0731243918281616e-02  2.8938546455400060e-02  2.6826723748450066e-02  2.4437645918808700e-02  2.1814471387540370e-02  1.8999492747936622e-02  1.6032331871079334e-02  1.2948634156198130e-02  9.7793597221668901e-03  6.5507086827505832e-03  3.2846545170792632e-03  0.0000000000000000e+00  0.0000000000000000e+00  2.7443442546828526e-03  5.4756352865376117e-03  8.1781503021280660e-03  1.0833657324048613e-02  1.3420489370749638e-02  1.5913035582433441e-02  1.8281729966661112e-02  2.0493568765747580e-02  2.2513134448921564e-02  2.4304052855215547e-02  2.5830764922173826e-02  2.7060460215339574e-02  2.7964999735995796e-02  2.8522652517660375e-02  2.8719484960584206e-02  2.8550272528833739e-02  2.8018847430868861e-02  2.7137848832985950e-02  2.5927898616372503e-02  2.4416279870707939e-02  2.2635241649764801e-02  2.0620087292900005e-02  1.8407221514571057e-02  1.6032331871079341e-02  1.3528863361075181e-02  1.0926912795118822e-02  8.2526256686857851e-03  5.5281271889174198e-03  2.7719660687238442e-03  0.0000000000000000e+00  0.0000000000000000e+00  2.2152530738959782e-03  4.4200519920562899e-03  6.6016664928180918e-03  8.7453641937739173e-03  1.0833657324048609e-02  1.2845885563385090e-02  1.4758201218231522e-02  1.6543981908116529e-02  1.8174652989221517e-02  1.9620860458610039e-02  2.0853898756837002e-02  2.1847270276722581e-02  2.2578237406844528e-02  2.3029225453734040e-02  2.3188946330666215e-02  2.3053137550342960e-02  2.2624846478757274e-02  2.1914232470086857e-02  2.0937905058594421e-02  1.9717860144354202e-02  1.8280113574338588e-02  1.6653158880563262e-02  1.486639049107418