<?xml version="1.0"?>
<VTKFile type="UnstructuredGrid"  version="0.1"  >
<UnstructuredGrid>
<Piece  NumberOfPoints="961" NumberOfCells="1800">
<Points>
<DataArray  type="Float64"  NumberOfComponents="3"  format="ascii">-2 -2 0  -1.866666666666667 -2 0  -1.733333333333333 -2 0  -1.6 -2 0  -1.466666666666667 -2 0  -1.333333333333333 -2 0  -1.2 -2 0  -1.066666666666667 -2 0  -0.9333333333333333 -2 0  -0.8 -2 0  -0.6666666666666667 -2 0  -0.5333333333333334 -2 0  -0.3999999999999999 -2 0  -0.2666666666666666 -2 0  -0.1333333333333333 -2 0  0 -2 0  0.1333333333333333 -2 0  0.2666666666666666 -2 0  0.3999999999999999 -2 0  0.5333333333333332 -2 0  0.6666666666666665 -2 0  0.7999999999999998 -2 0  0.9333333333333331 -2 0  1.066666666666667 -2 0  1.2 -2 0  1.333333333333333 -2 0  1.466666666666667 -2 0  1.6 -2 0  1.733333333333333 -2 0  1.866666666666667 -2 0  2 -2 0  -2 -1.866666666666667 0  -1.866666666666667 -1.866666666666667 0  -1.733333333333333 -1.866666666666667 0  -1.6 -1.866666666666667 0  -1.466666666666667 -1.866666666666667 0  -1.333333333333333 -1.866666666666667 0  -1.2 -1.866666666666667 0  -1.066666666666667 -1.866666666666667 0  -0.9333333333333333 -1.866666666666667 0  -0.8 -1.866666666666667 0  -0.6666666666666667 -1.866666666666667 0  -0.5333333333333334 -1.866666666666667 0  -0.3999999999999999 -1.866666666666667 0  -0.2666666666666666 -1.866666666666667 0  -0.1333333333333333 -1.866666666666667 0  0 -1.866666666666667 0  0.1333333333333333 -1.866666666666667 0  0.2666666666666666 -1.866666666666667 0  0.3999999999999999 -1.866666666666667 0  0.5333333333333332 -1.866666666666667 0  0.6666666666666665 -1.866666666666667 0  0.7999999999999998 -1.866666666666667 0  0.9333333333333331 -1.866666666666667 0  1.066666666666667 -1.866666666666667 0  1.2 -1.866666666666667 0  1.333333333333333 -1.866666666666667 0  1.466666666666667 -1.866666666666667 0  1.6 -1.866666666666667 0  1.733333333333333 -1.866666666666667 0  1.866666666666667 -1.866666666666667 0  2 -1.866666666666667 0  -2 -1.733333333333333 0  -1.866666666666667 -1.733333333333333 0  -1.733333333333333 -1.733333333333333 0  -1.6 -1.733333333333333 0  -1.466666666666667 -1.733333333333333 0  -1.333333333333333 -1.733333333333333 0  -1.2 -1.733333333333333 0  -1.066666666666667 -1.733333333333333 0  -0.9333333333333333 -1.733333333333333 0  -0.8 -1.733333333333333 0  -0.6666666666666667 -1.733333333333333 0  -0.5333333333333334 -1.733333333333333 0  -0.3999999999999999 -1.733333333333333 0  -0.2666666666666666 -1.733333333333333 0  -0.1333333333333333 -1.733333333333333 0  0 -1.733333333333333 0  0.1333333333333333 -1.733333333333333 0  0.2666666666666666 -1.733333333333333 0  0.3999999999999999 -1.733333333333333 0  0.5333333333333332 -1.733333333333333 0  0.6666666666666665 -1.733333333333333 0  0.7999999999999998 -1.733333333333333 0  0.9333333333333331 -1.733333333333333 0  1.066666666666667 -1.733333333333333 0  1.2 -1.733333333333333 0  1.333333333333333 -1.733333333333333 0  1.466666666666667 -1.733333333333333 0  1.6 -1.733333333333333 0  1.733333333333333 -1.733333333333333 0  1.866666666666667 -1.733333333333333 0  2 -1.733333333333333 0  -2 -1.6 0  -1.866666666666667 -1.6 0  -1.733333333333333 -1.6 0  -1.6 -1.6 0  -1.466666666666667 -1.6 0  -1.333333333333333 -1.6 0  -1.2 -1.6 0  -1.066666666666667 -1.6 0  -0.9333333333333333 -1.6 0  -0.8 -1.6 0  -0.6666666666666667 -1.6 0  -0.5333333333333334 -1.6 0  -0.3999999999999999 -1.6 0  -0.2666666666666666 -1.6 0  -0.1333333333333333 -1.6 0  0 -1.6 0  0.1333333333333333 -1.6 0  0.2666666666666666 -1.6 0  0.3999999999999999 -1.6 0  0.5333333333333332 -1.6 0  0.6666666666666665 -1.6 0  0.7999999999999998 -1.6 0  0.9333333333333331 -1.6 0  1.066666666666667 -1.6 0  1.2 -1.6 0  1.333333333333333 -1.6 0  1.466666666666667 -1.6 0  1.6 -1.6 0  1.733333333333333 -1.6 0  1.866666666666667 -1.6 0  2 -1.6 0  -2 -1.466666666666667 0  -1.866666666666667 -1.466666666666667 0  -1.733333333333333 -1.466666666666667 0  -1.6 -1.466666666666667 0  -1.466666666666667 -1.466666666666667 0  -1.333333333333333 -1.466666666666667 0  -1.2 -1.466666666666667 0  -1.066666666666667 -1.466666666666667 0  -0.9333333333333333 -1.466666666666667 0  -0.8 -1.466666666666667 0  -0.6666666666666667 -1.466666666666667 0  -0.5333333333333334 -1.466666666666667 0  -0.3999999999999999 -1.466666666666667 0  -0.2666666666666666 -1.466666666666667 0  -0.1333333333333333 -1.466666666666667 0  0 -1.466666666666667 0  0.1333333333333333 -1.466666666666667 0  0.2666666666666666 -1.466666666666667 0  0.3999999999999999 -1.466666666666667 0  0.5333333333333332 -1.466666666666667 0  0.6666666666666665 -1.466666666666667 0  0.7999999999999998 -1.466666666666667 0  0.9333333333333331 -1.466666666666667 0  1.066666666666667 -1.466666666666667 0  1.2 -1.466666666666667 0  1.333333333333333 -1.466666666666667 0  1.466666666666667 -1.466666666666667 0  1.6 -1.466666666666667 0  1.733333333333333 -1.466666666666667 0  1.866666666666667 -1.466666666666667 0  2 -1.466666666666667 0  -2 -1.333333333333333 0  -1.866666666666667 -1.333333333333333 0  -1.733333333333333 -1.333333333333333 0  -1.6 -1.333333333333333 0  -1.466666666666667 -1.333333333333333 0  -1.333333333333333 -1.333333333333333 0  -1.2 -1.333333333333333 0  -1.066666666666667 -1.333333333333333 0  -0.9333333333333333 -1.333333333333333 0  -0.8 -1.333333333333333 0  -0.6666666666666667 -1.333333333333333 0  -0.5333333333333334 -1.333333333333333 0  -0.3999999999999999 -1.333333333333333 0  -0.2666666666666666 -1.333333333333333 0  -0.1333333333333333 -1.333333333333333 0  0 -1.333333333333333 0  0.1333333333333333 -1.333333333333333 0  0.2666666666666666 -1.333333333333333 0  0.3999999999999999 -1.333333333333333 0  0.5333333333333332 -1.333333333333333 0  0.6666666666666665 -1.333333333333333 0  0.7999999999999998 -1.333333333333333 0  0.9333333333333331 -1.333333333333333 0  1.066666666666667 -1.333333333333333 0  1.2 -1.333333333333333 0  1.333333333333333 -1.333333333333333 0  1.466666666666667 -1.333333333333333 0  1.6 -1.333333333333333 0  1.733333333333333 -1.333333333333333 0  1.866666666666667 -1.333333333333333 0  2 -1.333333333333333 0  -2 -1.2 0  -1.866666666666667 -1.2 0  -1.733333333333333 -1.2 0  -1.6 -1.2 0  -1.466666666666667 -1.2 0  -1.333333333333333 -1.2 0  -1.2 -1.2 0  -1.066666666666667 -1.2 0  -0.9333333333333333 -1.2 0  -0.8 -1.2 0  -0.6666666666666667 -1.2 0  -0.5333333333333334 -1.2 0  -0.3999999999999999 -1.2 0  -0.2666666666666666 -1.2 0  -0.1333333333333333 -1.2 0  0 -1.2 0  0.1333333333333333 -1.2 0  0.2666666666666666 -1.2 0  0.3999999999999999 -1.2 0  0.5333333333333332 -1.2 0  0.6666666666666665 -1.2 0  0.7999999999999998 -1.2 0  0.9333333333333331 -1.2 0  1.066666666666667 -1.2 0  1.2 -1.2 0  1.333333333333333 -1.2 0  1.466666666666667 -1.2 0  1.6 -1.2 0  1.733333333333333 -1.2 0  1.866666666666667 -1.2 0  2 -1.2 0  -2 -1.066666666666667 0  -1.866666666666667 -1.066666666666667 0  -1.733333333333333 -1.066666666666667 0  -1.6 -1.066666666666667 0  -1.466666666666667 -1.066666666666667 0  -1.333333333333333 -1.066666666666667 0  -1.2 -1.066666666666667 0  -1.066666666666667 -1.066666666666667 0  -0.9333333333333333 -1.066666666666667 0  -0.8 -1.066666666666667 0  -0.6666666666666667 -1.066666666666667 0  -0.5333333333333334 -1.066666666666667 0  -0.3999999999999999 -1.066666666666667 0  -0.2666666666666666 -1.066666666666667 0  -0.1333333333333333 -1.066666666666667 0  0 -1.066666666666667 0  0.1333333333333333 -1.066666666666667 0  0.2666666666666666 -1.066666666666667 0  0.3999999999999999 -1.066666666666667 0  0.5333333333333332 -1.066666666666667 0  0.6666666666666665 -1.066666666666667 0  0.7999999999999998 -1.066666666666667 0  0.9333333333333331 -1.066666666666667 0  1.066666666666667 -1.066666666666667 0  1.2 -1.066666666666667 0  1.333333333333333 -1.066666666666667 0  1.466666666666667 -1.066666666666667 0  1.6 -1.066666666666667 0  1.733333333333333 -1.066666666666667 0  1.866666666666667 -1.066666666666667 0  2 -1.066666666666667 0  -2 -0.9333333333333333 0  -1.866666666666667 -0.9333333333333333 0  -1.733333333333333 -0.9333333333333333 0  -1.6 -0.9333333333333333 0  -1.466666666666667 -0.9333333333333333 0  -1.333333333333333 -0.9333333333333333 0  -1.2 -0.9333333333333333 0  -1.066666666666667 -0.9333333333333333 0  -0.9333333333333333 -0.9333333333333333 0  -0.8 -0.9333333333333333 0  -0.6666666666666667 -0.9333333333333333 0  -0.5333333333333334 -0.9333333333333333 0  -0.3999999999999999 -0.9333333333333333 0  -0.2666666666666666 -0.9333333333333333 0  -0.1333333333333333 -0.9333333333333333 0  0 -0.9333333333333333 0  0.1333333333333333 -0.9333333333333333 0  0.2666666666666666 -0.9333333333333333 0  0.3999999999999999 -0.9333333333333333 0  0.5333333333333332 -0.9333333333333333 0  0.6666666666666665 -0.9333333333333333 0  0.7999999999999998 -0.9333333333333333 0  0.9333333333333331 -0.9333333333333333 0  1.066666666666667 -0.9333333333333333 0  1.2 -0.9333333333333333 0  1.333333333333333 -0.9333333333333333 0  1.466666666666667 -0.9333333333333333 0  1.6 -0.9333333333333333 0  1.733333333333333 -0.9333333333333333 0  1.866666666666667 -0.9333333333333333 0  2 -0.9333333333333333 0  -2 -0.8 0  -1.866666666666667 -0.8 0  -1.733333333333333 -0.8 0  -1.6 -0.8 0  -1.466666666666667 -0.8 0  -1.333333333333333 -0.8 0  -1.2 -0.8 0  -1.066666666666667 -0.8 0  -0.9333333333333333 -0.8 0  -0.8 -0.8 0  -0.6666666666666667 -0.8 0  -0.5333333333333334 -0.8 0  -0.3999999999999999 -0.8 0  -0.2666666666666666 -0.8 0  -0.1333333333333333 -0.8 0  0 -0.8 0  0.1333333333333333 -0.8 0  0.2666666666666666 -0.8 0  0.3999999999999999 -0.8 0  0.5333333333333332 -0.8 0  0.6666666666666665 -0.8 0  0.7999999999999998 -0.8 0  0.9333333333333331 -0.8 0  1.066666666666667 -0.8 0  1.2 -0.8 0  1.333333333333333 -0.8 0  1.466666666666667 -0.8 0  1.6 -0.8 0  1.733333333333333 -0.8 0  1.866666666666667 -0.8 0  2 -0.8 0  -2 -0.6666666666666667 0  -1.866666666666667 -0.
[...]
<PointData  Scalars="f_468"> 
<DataArray  type="Float64"  Name="f_468"  format="ascii">0.0000000000000000e+00  0.0000000000000000e+00  0.0000000000000000e+00  0.0000000000000000e+00  0.0000000000000000e+00  0.0000000000000000e+00  0.0000000000000000e+00  0.0000000000000000e+00  0.0000000000000000e+00  0.0000000000000000e+00  0.0000000000000000e+00  0.0000000000000000e+00  0.0000000000000000e+00  0.0000000000000000e+00  0.0000000000000000e+00  0.0000000000000000e+00  0.0000000000000000e+00  0.0000000000000000e+00  0.0000000000000000e+00  0.0000000000000000e+00  0.0000000000000000e+00  0.0000000000000000e+00  0.0000000000000000e+00  0.0000000000000000e+00  0.0000000000000000e+00  0.0000000000000000e+00  0.0000000000000000e+00  0.0000000000000000e+00  0.0000000000000000e+00  0.0000000000000000e+00  0.0000000000000000e+00  0.0000000000000000e+00  7.7221701919243918e-05  1.6960315528528181e-04  2.8936230562232003e-04  4.4884002823185511e-04  6.5919211262391634e-04  9.2863064109288457e-04  1.2602436192127933e-03  1.6497556534038492e-03  2.0838248211797711e-03  2.5395536326283958e-03  2.9857603357227127e-03  3.3861958740119629e-03  3.7043729871620956e-03  3.9091514639778922e-03  3.9798859753718005e-03  3.9099363585859180e-03  3.7076989167430068e-03  3.3949385457914161e-03  3.0028818642394606e-03  2.5670489808491265e-03  2.1220040476832946e-03  1.6970633965741836e-03  1.3136056173058000e-03  9.8413945517729991e-04  7.1286089461552928e-04  4.9717272130317847e-04  3.2957415587858165e-04  1.9941522168331145e-04  9.4169966068919088e-05  0.0000000000000000e+00  0.0000000000000000e+00  1.6960315528528178e-04  3.7090293179356358e-04  6.3133444758537479e-04  9.7791743836985064e-04  1.4348804714074633e-03  2.0199829844362691e-03  2.7398317024322416e-03  3.5850400204622919e-03  4.5265398989346155e-03  5.5145252329025863e-03  6.4812184365370552e-03  7.3478678835300192e-03  8.0352546226964815e-03  8.4758467188443213e-03  8.6250001294561150e-03  8.4685871659181799e-03  8.0252147196019207e-03  7.3425519206717221e-03  6.4887758257864978e-03  5.5412767128218340e-03  4.5752068450186948e-03  3.6541439882505728e-03  2.8242731621333501e-03  2.1124174518475742e-03  1.5273192595519674e-03  1.0630125894411549e-03  7.0299236032221623e-04  4.2409615912702894e-04  1.9941522168331148e-04  0.0000000000000000e+00  0.0000000000000000e+00  2.8936230562232013e-04  6.3133444758537501e-04  1.0731688289875190e-03  1.6609733588027380e-03  2.4359203076142421e-03  3.4281186738265991e-03  4.6487113409923132e-03  6.0816690109625560e-03  7.6775227577196830e-03  9.3515626774481036e-03  1.0988542912688260e-02  1.2454598342619612e-02  1.3615149957501675e-02  1.4355623836556419e-02  1.4600538171832222e-02  1.4326477439653883e-02  1.3565809386336124e-02  1.2400329011040895e-02  1.0946569428435540e-02  9.3364624334475108e-03  7.6977843953537038e-03  6.1382759736939747e-03  4.7358235454735406e-03  3.5352427653480398e-03  2.5506114119088585e-03  1.7711468596433701e-03  1.1684093709446938e-03  7.0299236032221634e-04  3.2957415587858181e-04  0.0000000000000000e+00  0.0000000000000000e+00  4.4884002823185538e-04  9.7791743836985086e-04  1.6609733588027378e-03  2.5696748781053593e-03  3.7679014487126332e-03  5.3023463982258875e-03  7.1903063128368151e-03  9.4069511482452271e-03  1.1875568063936212e-02  1.4464724488108070e-02  1.6995547308440960e-02  1.9260240707833668e-02  2.1049955238190275e-02  2.2187062479838777e-02  2.2554889981511585e-02  2.2117904607434062e-02  2.0927421193279859e-02  1.9111565247084402e-02  1.6852230830853812e-02  1.4354823011074882e-02  1.1817746776313408e-02  9.4077289323064618e-03  7.2446863505315779e-03  5.3969439753675701e-03  3.8851085940539622e-03  2.6914271965275934e-03  1.7711468596433707e-03  1.0630125894411551e-03  4.9717272130317847e-04  0.0000000000000000e+00  0.0000000000000000e+00  6.5919211262391666e-04  1.4348804714074640e-03  2.4359203076142421e-03  3.7679014487126349e-03  5.5248997460868041e-03  7.7757533750020735e-03  1.0546130177961499e-02  1.3799756558369151e-02  1.7423963958808769e-02  2.1225398879401454e-02  2.4940659050393121e-02  2.8263564291299760e-02  3.0886311618969924e-02  3.2547211498754350e-02  3.3074705530228343e-02  3.2417239861863296e-02  3.0651659721762054e-02  2.7968225366945380e-02  2.4636334345234229e-02  2.0959583931069493e-02  1.7230550962170389e-02  1.3694344238404078e-02  1.0526424351486759e-02  7.8258323270607288e-03  5.6212469891420685e-03  3.8851085940539622e-03  2.5506114119088585e-03  1.5273192595519674e-03  7.1286089461552917e-04  0.0000000000000000e+00  0.0000000000000000e+00  9.2863064109288500e-04  2.0199829844362699e-03  3.4281186738265986e-03  5.3023463982258892e-03  7.7757533750020761e-03  1.0945940227813254e-02  1.4849712718649726e-02  1.9436474328091317e-02  2.4547618601819945e-02  2.9910237732655165e-02  3.5151969533537039e-02  3.9839496517815078e-02  4.3536871819244163e-02  4.5873334681391001e-02  4.6605954005320242e-02  4.5662202797315511e-02  4.3151943367975384e-02  3.9346063096325719e-02  3.4627576393847274e-02  2.9427541696261411e-02  2.4160650226327185e-02  1.9173442225531998e-02  1.4712985304735544e-02  1.0917593615125318e-02  7.8258323270607270e-03  5.3969439753675684e-03  3.5352427653480385e-03  2.1124174518475734e-03  9.8413945517729991e-04  0.0000000000000000e+00  0.0000000000000000e+00  1.2602436192127940e-03  2.7398317024322420e-03  4.6487113409923132e-03  7.1903063128368229e-03  1.0546130177961506e-02  1.4849712718649734e-02  2.0152168386677036e-02  2.6385826830606380e-02  3.3335870453916873e-02  4.0631376175584780e-02  4.7765186659083497e-02  5.4146193063421798e-02  5.9178935923706356e-02  6.2356453147553260e-02  6.3346277315443983e-02  6.2049060033858794e-02  5.8615249049101106e-02  5.3415906171442089e-02  4.6975598213269944e-02  3.9884353070206213e-02  3.2709176881254097e-02  2.5923019667541465e-02  1.9861993581660131e-02  1.4712985304735547e-02  1.0526424351486763e-02  7.2446863505315796e-03  4.7358235454735406e-03  2.8242731621333501e-03  1.3136056173058000e-03  0.0000000000000000e+00  0.0000000000000000e+00  1.6497556534038498e-03  3.5850400204622919e-03  6.0816690109625560e-03  9.4069511482452340e-03  1.3799756558369160e-02  1.9436474328091331e-02  2.6385826830606376e-02  3.4560903659323280e-02  4.3681468296901345e-02  5.3261593648550161e-02  6.2635190766861346e-02  7.1024370419713892e-02  7.7644139807105286e-02  8.1825001855906285e-02  8.3126910231879556e-02  8.1417308337598263e-02  7.6893742073889826e-02  7.0045642880135192e-02  6.1565652071923133e-02  5.2232994897692585e-02  4.2796168090112843e-02  3.3878787983427854e-02  2.5923019667541465e-02  1.9173442225531998e-02  1.3694344238404080e-02  9.4077289323064636e-03  6.1382759736939765e-03  3.6541439882505728e-03  1.6970633965741834e-03  0.0000000000000000e+00  0.0000000000000000e+00  2.0838248211797724e-03  4.5265398989346173e-03  7.6775227577196865e-03  1.1875568063936220e-02  1.7423963958808769e-02  2.4547618601819966e-02  3.3335870453916873e-02  4.3681468296901338e-02  5.5232224486482864e-02  6.7374510383529207e-02  7.9264747340733063e-02  8.9915474039814508e-02  9.8328048408740876e-02  1.0364874790787632e-01  1.0531448566249457e-01  1.0315319361298959e-01  9.7413648259263519e-02  8.8717482299749267e-02  7.7946378787355219e-02  6.6093145591747490e-02  5.4111630662563685e-02  4.2796168090112878e-02  3.2709176881254104e-02  2.4160650226327216e-02  1.7230550962170407e-02  1.1817746776313417e-02  7.6977843953537116e-03  4.5752068450186974e-03  2.1220040476832951e-03  0.0000000000000000e+00  0.0000000000000000e+00  2.5395536326283958e-03  5.5145252329025863e-03  9.3515626774481036e-03  1.4464724488108078e-02  2.1225398879401475e-02  2.9910237732655179e-02  4.0631376175584780e-02  5.3261593648550147e-02  6.7374510383529179e-02  8.2223329678404039e-02  9.6778141573596210e-02  1.0983024271304100e-01  1.2015417396495078e-01  1.2669929495157406e-01  1.2876949478448246e-01  1.2614787293806892e-01  1.1913491908069254e-01  1.0849074346507778e-01  9.5296963931452566e-02  8.0773453809738896e-02  6.6093145591747504e-02  5.2232994897692626e-02  3.9884353070206213e-02  2.9427541696261442e-02  2.0959583931069503e-02  1.4354823011074895e-02  9.3364624334475229e-03  5.5412767128218392e-03  2.5670489808491291e-03  0.0000000000000000e+00  0.0000000000000000e+00  2.9857603357227118e-03  6.4812184365370534e-03  1.0988542912688262e-02  1.6995547308440970e-02  2.4940659050393131e-02  3.5151969533537046e-02  4.7765186659083490e-02  6.2635190766861332e-02  7.9264747340733022e-02  9.6778141573596183e-02  1.1396362133265918e-01  1.2939510675071639e-01  1.4162273867150157e-01  1.4939939239980329e-01  1.5189431660194525e-01  1.4884254172686714e-01  1.4059219927312067e-01  1.2803785787901442e-01  1.1245782703913959e-01  9.5296963931452608e-02  7.7946378787355206e-02  6.1565652071923174e-02  4.6975598213269944e-02  3.4627576393847316e-02  2.4636334345234250e-02  1.6852230830853829e-02  1.0946569428435551e-02  6.4887758257865065e-03  3.0028818642394641e-03  0.0000000000000000e+00  0.0000000000000000e+00  3.3861958740119638e-03  7.3478678835300184e-03  1.2454598342619612e-02  1.9260240707833689e-02  2.8263564291299802e-02  3.9839496517815098e-02  5.4146193063421791e-02  7.1024370419713864e-02  8.9915474039814480e-02  1.0983024271304101e-01  1.2939510675071639e-01  1.4698885760188152e-01  1.6095838684954716e-01  1.6987661588131020e-01  1.7278717325575965e-01  1.6937699772958553e-01  1.6003299083410777e-01  1.4576827866218822e-01  1.2803785787901431e-01  1.0849074346507770e-01  8.8717482299749212e-02  7.0045642880135248e-02  5.3415906171442103e-02  3.9346063096325740e-02  2.7968225366945366e-02  1.9111565247084402e-02  1.2400329011040887e-02  7.3425519206717221e-03  3.3949385457914191e-03  0.0000000000000000e+00  0.0000000000000000e+00  3.7043729871620991e-03  8.0352546226964937e-03  1.3615149957501686e-02  2.1049955238190317e-02  3.0886311618969989e-02  4.3536871819244254e-02  5.9178935923706405e-02  7.7644139807105314e-02  9.8328048408740890e-02  1.2015417396495083e-01  1.4162273867150163e-01  1.6095838684954725e-01  1.7634531546082532e-01  1.8621003725254512e-01  1.8949122755148276e-01  1.8583181967512460e-01  1.7564439449296942e-01  1.6003299083410782e-01  1.4059219927312053e-01  1.1913491908069253e-01  9.7413648259263533e-02  7.6893742073889909e-02  5.8615249049101162e-02  4.3151943367975440e-02  3.0651659721762085e-02  2.0927421193279869e-02  1.3565809386336128e-02  8.0252147196019207e-03  3.7076989167430076e-03  0.0000000000000000e+00  0.0000000000000000e+00  3.9091514639779000e-03  8.4758467188443334e-03  1.4355623836556435e-02  2.2187062479838825e-02  3.2547211498754440e-02  4.5873334681391098e-02  6.2356453147553302e-02  8.1825001855906340e-02  1.0364874790787637e-01  1.2669929495157417e-01  1.4939939239980349e-01  1.6987661588131037e-01  1.8621003725254520e-01  1.9672860352335400e-01  2.0029761858869585e-01  1.9652458032562653e-01  1.8583181967512466e-01  1.6937699772958553e-01  1.4884254172686701e-01  1.2614787293806887e-01  1.0315319361298954e-01  8.1417308337598290e-02  6.2049060033858822e-02  4.5662202797315560e-02  3.2417239861863317e-02  2.2117904607434069e-02  1.4326477439653889e-02  8.4685871659181816e-03  3.9099363585859180e-03  0.0000000000000000e+00  0.0000000000000000e+00  3.9798859753718057e-03  8.6250001294561254e-03  1.4600538171832248e-02  2.2554889981511651e-02  3.3074705530228420e-02  4.6605954005320353e-02  6.3346277315444094e-02  8.3126910231879708e-02  1.0531448566249471e-01  1.2876949478448271e-01  1.5189431660194563e-01  1.7278717325575987e-01  1.8949122755148295e-01  2.0029761858869594e-01  2.0403816424533586e-01  2.0029761858869582e-01  1.8949122755148268e-01  1.7278717325575949e-01  1.5189431660194522e-01  1.2876949478448241e-01  1.0531448566249449e-01  8.3126910231879569e-02  6.3346277315444025e-02  4.6605954005320284e-02  3.3074705530228364e-02  2.2554889981511596e-02  1.4600538171832217e-02  8.6250001294561097e-03  3.9798859753717997e-03  0.0000000000000000e+00  0.0000000000000000e+00  3.9099363585859267e-03  8.4685871659181990e-03  1.4326477439653918e-02  2.2117904607434118e-02  3.2417239861863394e-02  4.5662202797315615e-02  6.2049060033858884e-02  8.1417308337598429e-02  1.0315319361298986e-01  1.2614787293806926e-01  1.4884254172686751e-01  1.6937699772958598e-01  1.8583181967512505e-01  1.9652458032562672e-01  2.0029761858869585e-01  1.9672860352335397e-01  1.8621003725254512e-01  1.6987661588131003e-01  1.4939939239980315e-01  1.2669929495157395e-01  1.0364874790787623e-01  8.1825001855906271e-02  6.2356453147553240e-02  4.5873334681391015e-02  3.2547211498754350e-02  2.2187062479838777e-02  1.4355623836556418e-02  8.4758467188443161e-03  3.9091514639778913e-03  0.0000000000000000e+00  0.0000000000000000e+00  3.7076989167430146e-03  8.0252147196019346e-03  1.3565809386336156e-02  2.0927421193279915e-02  3.0651659721762162e-02  4.3151943367975509e-02  5.8615249049101231e-02  7.6893742073890020e-02  9.7413648259263796e-02  1.1913491908069294e-01  1.4059219927312097e-01  1.6003299083410827e-01  1.7564439449296981e-01  1.8583181967512491e-01  1.8949122755148279e-01  1.8621003725254520e-01  1.7634531546082524e-01  1.6095838684954700e-01  1.4162273867150141e-01  1.2015417396495065e-01  9.8328048408740820e-02  7.7644139807105272e-02  5.9178935923706336e-02  4.3536871819244163e-02  3.0886311618969924e-02  2.1049955238190272e-02  1.3615149957501658e-02  8.0352546226964729e-03  3.7043729871620917e-03  0.0000000000000000e+00  0.0000000000000000e+00  3.3949385457914256e-03  7.3425519206717421e-03  1.2400329011040923e-02  1.9111565247084454e-02  2.7968225366945435e-02  3.9346063096325823e-02  5.3415906171442200e-02  7.0045642880135359e-02  8.8717482299749476e-02  1.0849074346507809e-01  1.2803785787901481e-01  1.4576827866218872e-01  1.6003299083410832e-01  1.6937699772958589e-01  1.7278717325575979e-01  1.6987661588131028e-01  1.6095838684954719e-01  1.4698885760188141e-01  1.2939510675071619e-01  1.0983024271304091e-01  8.9915474039814439e-02  7.1024370419713864e-02  5.4146193063421770e-02  3.9839496517815043e-02  2.8263564291299750e-02  1.9260240707833661e-02  1.2454598342619600e-02  7.3478678835300079e-03  3.3861958740119594e-03  0.0000000000000000e+00  0.0000000000000000e+00  3.0028818642394697e-03  6.4887758257865169e-03  1.0946569428435571e-02  1.6852230830853857e-02  2.4636334345234271e-02  3.4627576393847379e-02  4.6975598213270055e-02  6.1565652071923285e-02  7.7946378787355428e-02  9.5296963931452788e-02  1.1245782703913985e-01  1.2803785787901478e-01  1.4059219927312105e-01  1.4884254172686745e-01  1.5189431660194561e-01  1.4939939239980349e-01  1.4162273867150166e-01  1.2939510675071633e-01  1.1396362133265908e-01  9.6778141573596085e-02  7.9264747340732994e-02  6.2635190766861318e-02  4.7765186659083476e-02  3.5151969533537004e-02  2.4940659050393103e-02  1.6995547308440943e-02  1.0988542912688245e-02  6.4812184365370439e-03  2.9857603357227075e-03  0.0000000000000000e+00  0.0000000000000000e+00  2.5670489808491347e-03  5.5412767128218540e-03  9.3364624334475420e-03  1.4354823011074925e-02  2.0959583931069559e-02  2.9427541696261498e-02  3.9884353070206303e-02  5.2232994897692731e-02  6.6093145591747685e-02  8.0773453809739146e-02  9.5296963931452816e-02  1.0849074346507814e-01  1.1913491908069299e-01  1.2614787293806928e-01  1.2876949478448271e-01  1.2669929495157425e-01  1.2015417396495096e-01  1.0983024271304113e-01  9.6778141573596210e-02  8.2223329678404025e-02  6.7374510383529207e-02  5.3261593648550154e-02  4.0631376175584800e-02  2.9910237732655168e-02  2.1225398879401450e-02  1.4464724488108063e-02  9.3515626774480932e-03  5.5145252329025802e-03  2.5395536326283919e-03  0.0000000000000000e+00  0.0000000000000000e+00  2.1220040476833029e-03  4.5752068450187131e-03  7.6977843953537264e-03  1.1817746776313445e-02  1.7230550962170452e-02  2.4160650226327265e-02  3.2709176881254194e-02  4.2796168090112968e-02  5.4111630662563838e-02  6.6093145591747726e-02  7.7946378787355441e-02  8.8717482299749600e-02  9.7413648259263963e-02  1.0315319361298993e-01  1.0531448566249479e-01  1.0364874790787651e-01  9.8328048408741098e-02  8.9915474039814688e-02  7.9264747340733244e-02  6.7374510383529360e-02  5.5232224486482927e-02  4.3681468296901359e-02  3.3335870453916880e-02  2.4547618601819979e-02  1.7423963958808773e-02  1.1875568063936217e-02  7.6775227577196830e-03  4.5265398989346155e-03  2.0838248211797702e-03  0.0000000000000000e+00  0.0000000000000000e+00  1.6970633965741892e-03  3.6541439882505841e-03  6.1382759736939929e-03  9.4077289323064913e-03  1.3694344238404118e-02  1.9173442225532043e-02  2.5923019667541517e-02  3.3878787983427944e-02  4.2796168090113010e-02  5.2232994897692765e-02  6.1565652071923299e-02  7.0045642880135442e-02  7.6893742073890145e-02  8.1417308337598526e-02  8.3126910231879819e-02  8.1825001855906493e-02  7.7644139807105508e-02  7.1024370419714059e-02  6.2635190766861498e-02  5.3261593648550272e-02  4.3681468296901393e-02  3.4560903659323308e-02  2.6385826830606366e-02  1.9436474328091324e-02  1.3799756558369161e-02  9.4069511482452357e-03  6.0816690109625577e-03  3.5850400204622927e-03  1.6497556534038501e-03  0.0000000000000000e+00  0.0000000000000000e+00  1.3136056173058037e-03  2.8242731621333575e-03  4.7358235454735519e-03  7.2446863505315996e-03  1.0526424351486787e-02  1.4712985304735565e-02  1.9861993581660145e-02  2.5923019667541486e-02  3.2709176881254166e-02  3.9884353070206283e-02  4.6975598213270048e-02  5.3415906171442214e-02  5.8615249049101259e-02  6.2049060033858905e-02  6.3346277315444108e-02  6.2356453147553323e-02  5.9178935923706467e-02  5.4146193063421895e-02  4.7765186659083539e-02  4.0631376175584828e-02  3.3335870453916894e-02  2.6385826830606387e-02  2.0152168386677018e-02  1.4849712718649712e-02  1.0546130177961490e-02  7.1903063128368134e-03  4.6487113409923080e-03  2.7398317024322394e-03  1.2602436192127933e-03  0.0000000000000000e+00  0.0000000000000000e+00  9.8413945517730273e-04  2.1124174518475803e-03  3.5352427653480506e-03  5.3969439753675857e-03  7.8258323270607513e-03  1.0917593615125339e-02  1.4712985304735561e-02  1.9173442225532019e-02  2.4160650226327244e-02  2.9427541696261487e-02  3.4627576393847379e-02  3.9346063096325823e-02  4.3151943367975516e-02  4.5662202797315615e-02  4.6605954005320319e-02  4.5873334681391077e-02  4.3536871819244261e-02  3.9839496517815133e-02  3.5151969533537060e-02  2.9910237732655200e-02  2.4547618601819979e-02  1.9436474328091341e-02  1.4849712718649729e-02  1.0945940227813238e-02  7.7757533750020683e-03  5.3023463982258823e-03  3.4281186738265960e-03  2.0199829844362673e-03  9.2863064109288435e-04  0.0000000000000000e+00  0.0000000000000000e+00  7.1286089461553134e-04  1.5273192595519716e-03  2.5506114119088663e-03  3.8851085940539752e-03  5.6212469891420841e-03  7.8258323270607409e-03  1.0526424351486778e-02  1.3694344238404096e-02  1.7230550962170438e-02  2.0959583931069548e-02  2.4636334345234299e-02  2.7968225366945446e-02  3.0651659721762162e-02  3.2417239861863352e-02  3.3074705530228392e-02  3.2547211498754412e-02  3.0886311618969989e-02  2.8263564291299802e-02  2.4940659050393159e-02  2.1225398879401492e-02  1.7423963958808790e-02  1.3799756558369168e-02  1.0546130177961495e-02  7.7757533750020674e-03  5.5248997460867998e-03  3.7679014487126293e-03  2.4359203076142395e-03  1.4348804714074627e-03  6.5919211262391655e-04  0.0000000000000000e+00  0.0000000000000000e+00  4.9717272130317988e-04  1.0630125894411579e-03  1.7711468596433757e-03  2.6914271965276012e-03  3.8851085940539739e-03  5.3969439753675805e-03  7.2446863505315909e-03  9.4077289323064740e-03  1.1817746776313431e-02  1.4354823011074920e-02  1.6852230830853868e-02  1.9111565247084454e-02  2.0927421193279904e-02  2.2117904607434104e-02  2.2554889981511624e-02  2.2187062479838822e-02  2.1049955238190320e-02  1.9260240707833699e-02  1.6995547308440977e-02  1.4464724488108090e-02  1.1875568063936233e-02  9.4069511482452427e-03  7.190306312836822