<?xml version="1.0"?>
<VTKFile type="UnstructuredGrid"  version="0.1"  >
<UnstructuredGrid>
<Piece  NumberOfPoints="961" NumberOfCells="1800">
<Points>
<DataArray  type="Float64"  NumberOfComponents="3"  format="ascii">-2 -2 0  -1.866666666666667 -2 0  -1.733333333333333 -2 0  -1.6 -2 0  -1.466666666666667 -2 0  -1.333333333333333 -2 0  -1.2 -2 0  -1.066666666666667 -2 0  -0.9333333333333333 -2 0  -0.8 -2 0  -0.6666666666666667 -2 0  -0.5333333333333334 -2 0  -0.3999999999999999 -2 0  -0.2666666666666666 -2 0  -0.1333333333333333 -2 0  0 -2 0  0.1333333333333333 -2 0  0.2666666666666666 -2 0  0.3999999999999999 -2 0  0.5333333333333332 -2 0  0.6666666666666665 -2 0  0.7999999999999998 -2 0  0.9333333333333331 -2 0  1.066666666666667 -2 0  1.2 -2 0  1.333333333333333 -2 0  1.466666666666667 -2 0  1.6 -2 0  1.733333333333333 -2 0  1.866666666666667 -2 0  2 -2 0  -2 -1.866666666666667 0  -1.866666666666667 -1.866666666666667 0  -1.733333333333333 -1.866666666666667 0  -1.6 -1.866666666666667 0  -1.466666666666667 -1.866666666666667 0  -1.333333333333333 -1.866666666666667 0  -1.2 -1.866666666666667 0  -1.066666666666667 -1.866666666666667 0  -0.9333333333333333 -1.866666666666667 0  -0.8 -1.866666666666667 0  -0.6666666666666667 -1.866666666666667 0  -0.5333333333333334 -1.866666666666667 0  -0.3999999999999999 -1.866666666666667 0  -0.2666666666666666 -1.866666666666667 0  -0.1333333333333333 -1.866666666666667 0  0 -1.866666666666667 0  0.1333333333333333 -1.866666666666667 0  0.2666666666666666 -1.866666666666667 0  0.3999999999999999 -1.866666666666667 0  0.5333333333333332 -1.866666666666667 0  0.6666666666666665 -1.866666666666667 0  0.7999999999999998 -1.866666666666667 0  0.9333333333333331 -1.866666666666667 0  1.066666666666667 -1.866666666666667 0  1.2 -1.866666666666667 0  1.333333333333333 -1.866666666666667 0  1.466666666666667 -1.866666666666667 0  1.6 -1.866666666666667 0  1.733333333333333 -1.866666666666667 0  1.866666666666667 -1.866666666666667 0  2 -1.866666666666667 0  -2 -1.733333333333333 0  -1.866666666666667 -1.733333333333333 0  -1.733333333333333 -1.733333333333333 0  -1.6 -1.733333333333333 0  -1.466666666666667 -1.733333333333333 0  -1.333333333333333 -1.733333333333333 0  -1.2 -1.733333333333333 0  -1.066666666666667 -1.733333333333333 0  -0.9333333333333333 -1.733333333333333 0  -0.8 -1.733333333333333 0  -0.6666666666666667 -1.733333333333333 0  -0.5333333333333334 -1.733333333333333 0  -0.3999999999999999 -1.733333333333333 0  -0.2666666666666666 -1.733333333333333 0  -0.1333333333333333 -1.733333333333333 0  0 -1.733333333333333 0  0.1333333333333333 -1.733333333333333 0  0.2666666666666666 -1.733333333333333 0  0.3999999999999999 -1.733333333333333 0  0.5333333333333332 -1.733333333333333 0  0.6666666666666665 -1.733333333333333 0  0.7999999999999998 -1.733333333333333 0  0.9333333333333331 -1.733333333333333 0  1.066666666666667 -1.733333333333333 0  1.2 -1.733333333333333 0  1.333333333333333 -1.733333333333333 0  1.466666666666667 -1.733333333333333 0  1.6 -1.733333333333333 0  1.733333333333333 -1.733333333333333 0  1.866666666666667 -1.733333333333333 0  2 -1.733333333333333 0  -2 -1.6 0  -1.866666666666667 -1.6 0  -1.733333333333333 -1.6 0  -1.6 -1.6 0  -1.466666666666667 -1.6 0  -1.333333333333333 -1.6 0  -1.2 -1.6 0  -1.066666666666667 -1.6 0  -0.9333333333333333 -1.6 0  -0.8 -1.6 0  -0.6666666666666667 -1.6 0  -0.5333333333333334 -1.6 0  -0.3999999999999999 -1.6 0  -0.2666666666666666 -1.6 0  -0.1333333333333333 -1.6 0  0 -1.6 0  0.1333333333333333 -1.6 0  0.2666666666666666 -1.6 0  0.3999999999999999 -1.6 0  0.5333333333333332 -1.6 0  0.6666666666666665 -1.6 0  0.7999999999999998 -1.6 0  0.9333333333333331 -1.6 0  1.066666666666667 -1.6 0  1.2 -1.6 0  1.333333333333333 -1.6 0  1.466666666666667 -1.6 0  1.6 -1.6 0  1.733333333333333 -1.6 0  1.866666666666667 -1.6 0  2 -1.6 0  -2 -1.466666666666667 0  -1.866666666666667 -1.466666666666667 0  -1.733333333333333 -1.466666666666667 0  -1.6 -1.466666666666667 0  -1.466666666666667 -1.466666666666667 0  -1.333333333333333 -1.466666666666667 0  -1.2 -1.466666666666667 0  -1.066666666666667 -1.466666666666667 0  -0.9333333333333333 -1.466666666666667 0  -0.8 -1.466666666666667 0  -0.6666666666666667 -1.466666666666667 0  -0.5333333333333334 -1.466666666666667 0  -0.3999999999999999 -1.466666666666667 0  -0.2666666666666666 -1.466666666666667 0  -0.1333333333333333 -1.466666666666667 0  0 -1.466666666666667 0  0.1333333333333333 -1.466666666666667 0  0.2666666666666666 -1.466666666666667 0  0.3999999999999999 -1.466666666666667 0  0.5333333333333332 -1.466666666666667 0  0.6666666666666665 -1.466666666666667 0  0.7999999999999998 -1.466666666666667 0  0.9333333333333331 -1.466666666666667 0  1.066666666666667 -1.466666666666667 0  1.2 -1.466666666666667 0  1.333333333333333 -1.466666666666667 0  1.466666666666667 -1.466666666666667 0  1.6 -1.466666666666667 0  1.733333333333333 -1.466666666666667 0  1.866666666666667 -1.466666666666667 0  2 -1.466666666666667 0  -2 -1.333333333333333 0  -1.866666666666667 -1.333333333333333 0  -1.733333333333333 -1.333333333333333 0  -1.6 -1.333333333333333 0  -1.466666666666667 -1.333333333333333 0  -1.333333333333333 -1.333333333333333 0  -1.2 -1.333333333333333 0  -1.066666666666667 -1.333333333333333 0  -0.9333333333333333 -1.333333333333333 0  -0.8 -1.333333333333333 0  -0.6666666666666667 -1.333333333333333 0  -0.5333333333333334 -1.333333333333333 0  -0.3999999999999999 -1.333333333333333 0  -0.2666666666666666 -1.333333333333333 0  -0.1333333333333333 -1.333333333333333 0  0 -1.333333333333333 0  0.1333333333333333 -1.333333333333333 0  0.2666666666666666 -1.333333333333333 0  0.3999999999999999 -1.333333333333333 0  0.5333333333333332 -1.333333333333333 0  0.6666666666666665 -1.333333333333333 0  0.7999999999999998 -1.333333333333333 0  0.9333333333333331 -1.333333333333333 0  1.066666666666667 -1.333333333333333 0  1.2 -1.333333333333333 0  1.333333333333333 -1.333333333333333 0  1.466666666666667 -1.333333333333333 0  1.6 -1.333333333333333 0  1.733333333333333 -1.333333333333333 0  1.866666666666667 -1.333333333333333 0  2 -1.333333333333333 0  -2 -1.2 0  -1.866666666666667 -1.2 0  -1.733333333333333 -1.2 0  -1.6 -1.2 0  -1.466666666666667 -1.2 0  -1.333333333333333 -1.2 0  -1.2 -1.2 0  -1.066666666666667 -1.2 0  -0.9333333333333333 -1.2 0  -0.8 -1.2 0  -0.6666666666666667 -1.2 0  -0.5333333333333334 -1.2 0  -0.3999999999999999 -1.2 0  -0.2666666666666666 -1.2 0  -0.1333333333333333 -1.2 0  0 -1.2 0  0.1333333333333333 -1.2 0  0.2666666666666666 -1.2 0  0.3999999999999999 -1.2 0  0.5333333333333332 -1.2 0  0.6666666666666665 -1.2 0  0.7999999999999998 -1.2 0  0.9333333333333331 -1.2 0  1.066666666666667 -1.2 0  1.2 -1.2 0  1.333333333333333 -1.2 0  1.466666666666667 -1.2 0  1.6 -1.2 0  1.733333333333333 -1.2 0  1.866666666666667 -1.2 0  2 -1.2 0  -2 -1.066666666666667 0  -1.866666666666667 -1.066666666666667 0  -1.733333333333333 -1.066666666666667 0  -1.6 -1.066666666666667 0  -1.466666666666667 -1.066666666666667 0  -1.333333333333333 -1.066666666666667 0  -1.2 -1.066666666666667 0  -1.066666666666667 -1.066666666666667 0  -0.9333333333333333 -1.066666666666667 0  -0.8 -1.066666666666667 0  -0.6666666666666667 -1.066666666666667 0  -0.5333333333333334 -1.066666666666667 0  -0.3999999999999999 -1.066666666666667 0  -0.2666666666666666 -1.066666666666667 0  -0.1333333333333333 -1.066666666666667 0  0 -1.066666666666667 0  0.1333333333333333 -1.066666666666667 0  0.2666666666666666 -1.066666666666667 0  0.3999999999999999 -1.066666666666667 0  0.5333333333333332 -1.066666666666667 0  0.6666666666666665 -1.066666666666667 0  0.7999999999999998 -1.066666666666667 0  0.9333333333333331 -1.066666666666667 0  1.066666666666667 -1.066666666666667 0  1.2 -1.066666666666667 0  1.333333333333333 -1.066666666666667 0  1.466666666666667 -1.066666666666667 0  1.6 -1.066666666666667 0  1.733333333333333 -1.066666666666667 0  1.866666666666667 -1.066666666666667 0  2 -1.066666666666667 0  -2 -0.9333333333333333 0  -1.866666666666667 -0.9333333333333333 0  -1.733333333333333 -0.9333333333333333 0  -1.6 -0.9333333333333333 0  -1.466666666666667 -0.9333333333333333 0  -1.333333333333333 -0.9333333333333333 0  -1.2 -0.9333333333333333 0  -1.066666666666667 -0.9333333333333333 0  -0.9333333333333333 -0.9333333333333333 0  -0.8 -0.9333333333333333 0  -0.6666666666666667 -0.9333333333333333 0  -0.5333333333333334 -0.9333333333333333 0  -0.3999999999999999 -0.9333333333333333 0  -0.2666666666666666 -0.9333333333333333 0  -0.1333333333333333 -0.9333333333333333 0  0 -0.9333333333333333 0  0.1333333333333333 -0.9333333333333333 0  0.2666666666666666 -0.9333333333333333 0  0.3999999999999999 -0.9333333333333333 0  0.5333333333333332 -0.9333333333333333 0  0.6666666666666665 -0.9333333333333333 0  0.7999999999999998 -0.9333333333333333 0  0.9333333333333331 -0.9333333333333333 0  1.066666666666667 -0.9333333333333333 0  1.2 -0.9333333333333333 0  1.333333333333333 -0.9333333333333333 0  1.466666666666667 -0.9333333333333333 0  1.6 -0.9333333333333333 0  1.733333333333333 -0.9333333333333333 0  1.866666666666667 -0.9333333333333333 0  2 -0.9333333333333333 0  -2 -0.8 0  -1.866666666666667 -0.8 0  -1.733333333333333 -0.8 0  -1.6 -0.8 0  -1.466666666666667 -0.8 0  -1.333333333333333 -0.8 0  -1.2 -0.8 0  -1.066666666666667 -0.8 0  -0.9333333333333333 -0.8 0  -0.8 -0.8 0  -0.6666666666666667 -0.8 0  -0.5333333333333334 -0.8 0  -0.3999999999999999 -0.8 0  -0.2666666666666666 -0.8 0  -0.1333333333333333 -0.8 0  0 -0.8 0  0.1333333333333333 -0.8 0  0.2666666666666666 -0.8 0  0.3999999999999999 -0.8 0  0.5333333333333332 -0.8 0  0.6666666666666665 -0.8 0  0.7999999999999998 -0.8 0  0.9333333333333331 -0.8 0  1.066666666666667 -0.8 0  1.2 -0.8 0  1.333333333333333 -0.8 0  1.466666666666667 -0.8 0  1.6 -0.8 0  1.733333333333333 -0.8 0  1.866666666666667 -0.8 0  2 -0.8 0  -2 -0.6666666666666667 0  -1.866666666666667 -0.
[...]
<PointData  Scalars="f_3403"> 
<DataArray  type="Float64"  Name="f_3403"  format="ascii">0.0000000000000000e+00  0.0000000000000000e+00  0.0000000000000000e+00  0.0000000000000000e+00  0.0000000000000000e+00  0.0000000000000000e+00  0.0000000000000000e+00  0.0000000000000000e+00  0.0000000000000000e+00  0.0000000000000000e+00  0.0000000000000000e+00  0.0000000000000000e+00  0.0000000000000000e+00  0.0000000000000000e+00  0.0000000000000000e+00  0.0000000000000000e+00  0.0000000000000000e+00  0.0000000000000000e+00  0.0000000000000000e+00  0.0000000000000000e+00  0.0000000000000000e+00  0.0000000000000000e+00  0.0000000000000000e+00  0.0000000000000000e+00  0.0000000000000000e+00  0.0000000000000000e+00  0.0000000000000000e+00  0.0000000000000000e+00  0.0000000000000000e+00  0.0000000000000000e+00  0.0000000000000000e+00  0.0000000000000000e+00  4.3284868955969705e-04  8.6075380577943484e-04  1.2797550184694805e-03  1.6857439600903652e-03  2.0745637589156328e-03  2.4420652614745497e-03  2.7841594034065998e-03  3.0968775841713238e-03  3.3764425426613147e-03  3.6193481536205205e-03  3.8224443479512602e-03  3.9830220824223148e-03  4.0988927025174442e-03  4.1684560842626126e-03  4.1907525551886388e-03  4.1654947035721281e-03  4.0930766749278473e-03  3.9745602797017464e-03  3.8116390303097728e-03  3.6065829182830218e-03  3.3621681743949464e-03  3.0815972957155338e-03  2.7684151867223357e-03  2.4264273187954645e-03  2.0596254144626806e-03  1.6721254845001937e-03  1.2681225244060739e-03  8.5186698829309586e-04  4.2767398073634380e-04  0.0000000000000000e+00  0.0000000000000000e+00  8.6075380577943516e-04  1.7120995427104427e-03  2.5458800101560118e-03  3.3538333420495728e-03  4.1276575561463953e-03  4.8590845845795190e-03  5.5399725499044507e-03  6.1624216215642241e-03  6.7189132837591073e-03  7.2024683052014024e-03  7.6068153374442794e-03  7.9265598560924536e-03  8.1573421106727710e-03  8.2959728684346892e-03  8.3405369696741057e-03  8.2904569199508914e-03  8.1465117079613080e-03  7.9108094696857898e-03  7.5867161906015427e-03  7.1787460082658044e-03  6.6924215300329382e-03  6.1341146524019384e-03  5.5108794800292045e-03  4.8302890211149706e-03  4.1002864359892029e-03  3.3290599404634034e-03  2.5249483963571094e-03  1.6963827251951983e-03  8.5186698829309586e-04  0.0000000000000000e+00  0.0000000000000000e+00  1.2797550184694814e-03  2.5458800101560135e-03  3.7860637262237696e-03  4.9879333050691409e-03  6.1391009529389810e-03  7.2272496175674354e-03  8.2402590138677904e-03  9.1663727063597301e-03  9.9944026819350426e-03  1.0713962995904625e-02  1.1315719885492508e-02  1.1791642790007729e-02  1.2135239292903117e-02  1.2341757230891702e-02  1.2408339065885454e-02  1.2334116903370594e-02  1.2120240948367096e-02  1.1769839294507188e-02  1.1287912255049179e-02  1.0681169461018330e-02  9.9578221971392822e-03  9.1273465256545804e-03  8.2002343851225803e-03  7.1877499170605900e-03  6.1017068007372770e-03  4.9542795530531985e-03  3.7578578703528123e-03  2.5249483963571085e-03  1.2681225244060735e-03  0.0000000000000000e+00  0.0000000000000000e+00  1.6857439600903668e-03  3.3538333420495758e-03  4.9879333050691366e-03  6.5716730270831769e-03  8.0886913479632557e-03  9.5227370262609638e-03  1.0857826874617010e-02  1.2078461271548643e-02  1.3169891027960179e-02  1.4118423709290484e-02  1.4911752365697330e-02  1.5539285934921300e-02  1.5992458806788373e-02  1.6264997384984478e-02  1.6353123935578012e-02  1.6255682347001765e-02  1.5974176232896584e-02  1.5512716534595386e-02  1.4877882782909926e-02  1.4078508792638739e-02  1.3125409161188855e-02  1.2031066999646281e-02  1.0809305467768789e-02  9.4749657283131790e-03  8.0436118959359235e-03  6.5312796315407347e-03  4.9542795530531959e-03  3.3290599404634013e-03  1.6721254845001926e-03  0.0000000000000000e+00  0.0000000000000000e+00  2.0745637589156354e-03  4.1276575561464005e-03  6.1391009529389827e-03  8.0886913479632557e-03  9.9562558741677770e-03  1.1721768924807851e-02  1.3365541889307319e-02  1.4868484903116139e-02  1.6212432975071071e-02  1.7380521548925554e-02  1.8357590290213454e-02  1.9130589424075688e-02  1.9688960809544402e-02  2.0024966383176648e-02  2.0133939630677555e-02  2.0014441079612602e-02  1.9668305950631751e-02  1.9100580381840610e-02  1.8319351263317966e-02  1.7335482865498276e-02  1.6162280342934997e-02  1.4815105193529647e-02  1.3310970387860407e-02  1.1668142917277545e-02  9.9057789521488117e-03  8.0436118959359253e-03  6.1017068007372718e-03  4.1002864359891977e-03  2.0596254144626784e-03  0.0000000000000000e+00  0.0000000000000000e+00  2.4420652614745519e-03  4.8590845845795242e-03  7.2272496175674449e-03  9.5227370262609707e-03  1.1721768924807857e-02  1.3800748618459920e-02  1.5736481065855918e-02  1.7506478533759771e-02  1.9089342647624196e-02  2.0465205240135384e-02  2.1616202967448386e-02  2.2526955397259098e-02  2.3185013753218683e-02  2.3581248023363855e-02  2.3710143694865026e-02  2.3569985648942568e-02  2.3162915154162550e-02  2.2494855638804281e-02  2.1575313077245379e-02  2.0417066424706681e-02  1.9035771667241675e-02  1.7449508951152992e-02  1.5678305367358470e-02  1.3743666010118845e-02  1.1668142917277557e-02  9.4749657283131790e-03  7.1877499170605848e-03  4.8302890211149663e-03  2.4264273187954623e-03  0.0000000000000000e+00  0.0000000000000000e+00  2.7841594034066033e-03  5.5399725499044603e-03  8.2402590138678008e-03  1.0857826874617010e-02  1.3365541889307324e-02  1.5736481065855925e-02  1.7944182263990895e-02  1.9962990930585855e-02  2.1768494226825971e-02  2.3338022603843905e-02  2.4651190323534220e-02  2.5690440372946655e-02  2.6441556319881147e-02  2.6894104231700060e-02  2.7041771813021174e-02  2.6882579052874445e-02  2.6418944243847695e-02  2.5657600340162182e-02  2.4609368203003253e-02  2.3288804237294902e-02  2.1713749213210513e-02  1.9904811809841671e-02  1.7884823987509617e-02  1.5678305367358460e-02  1.3310970387860397e-02  1.0809305467768763e-02  8.2002343851225647e-03  5.5108794800291967e-03  2.7684151867223314e-03  0.0000000000000000e+00  0.0000000000000000e+00  3.0968775841713290e-03  6.1624216215642345e-03  9.1663727063597475e-03  1.2078461271548654e-02  1.4868484903116142e-02  1.7506478533759785e-02  1.9962990930585848e-02  2.2209469103165357e-02  2.4218740061864117e-02  2.5965567901166470e-02  2.7427254583917988e-02  2.8584246020025243e-02  2.9420701765041642e-02  2.9924987269184480e-02  3.0090052066236283e-02  2.9913665206778399e-02  2.9398489873761893e-02  2.8551991465558705e-02  2.7386186318759779e-02  2.5917250443287989e-02  2.4165017996305355e-02  2.2152406750095846e-02  1.9904811809841653e-02  1.7449508951152968e-02  1.4815105193529632e-02  1.2031066999646262e-02  9.1273465256545647e-03  6.1341146524019254e-03  3.0815972957155256e-03  0.0000000000000000e+00  0.0000000000000000e+00  3.3764425426613225e-03  6.7189132837591212e-03  9.9944026819350652e-03  1.3169891027960198e-02  1.6212432975071089e-02  1.9089342647624213e-02  2.1768494226825981e-02  2.4218740061864114e-02  2.6410435005783439e-02  2.8316043121816941e-02  2.9910792380108162e-02  3.1173335517103676e-02  3.2086371620530400e-02  3.2637183622424994e-02  3.2818051710385855e-02  3.2626511270794814e-02  3.2065435554692941e-02  3.1142936712824778e-02  2.9872092902000560e-02  2.8270522482305691e-02  2.6359837638135073e-02  2.4165017996305393e-02  2.1713749213210527e-02  1.9035771667241665e-02  1.6162280342934997e-02  1.3125409161188846e-02  9.9578221971392752e-03  6.6924215300329304e-03  3.3621681743949416e-03  0.0000000000000000e+00  0.0000000000000000e+00  3.6193481536205270e-03  7.2024683052014180e-03  1.0713962995904640e-02  1.4118423709290501e-02  1.7380521548925582e-02  2.0465205240135398e-02  2.3338022603843923e-02  2.5965567901166484e-02  2.8316043121816941e-02  3.0359907794900561e-02  3.2070580571410122e-02  3.3425147796088288e-02  3.4405030370410400e-02  3.4996560829309076e-02  3.5191427691913635e-02  3.4986953339986186e-02  3.4386184068754128e-02  3.3397785371738542e-02  3.2035750593390692e-02  3.0318945376016340e-02  2.8270522482305716e-02  2.5917250443288027e-02  2.3288804237294933e-02  2.0417066424706681e-02  1.7335482865498273e-02  1.4078508792638736e-02  1.0681169461018330e-02  7.1787460082658010e-03  3.6065829182830205e-03  0.0000000000000000e+00  0.0000000000000000e+00  3.8224443479512658e-03  7.6068153374442941e-03  1.1315719885492515e-02  1.4911752365697346e-02  1.8357590290213461e-02  2.1616202967448397e-02  2.4651190323534241e-02  2.7427254583917999e-02  2.9910792380108183e-02  3.2070580571410122e-02  3.3878517069763761e-02  3.5310369429710227e-02  3.6346479783780819e-02  3.6972375314760643e-02  3.7179238842753336e-02  3.6964203783052707e-02  3.6330450796838387e-02  3.5287098674933029e-02  3.3848897918470032e-02  3.2035750593390658e-02  2.9872092902000578e-02  2.7386186318759831e-02  2.4609368203003319e-02  2.1575313077245393e-02  1.8319351263317973e-02  1.4877882782909926e-02  1.1287912255049189e-02  7.5867161906015427e-03  3.8116390303097737e-03  0.0000000000000000e+00  0.0000000000000000e+00  3.9830220824223200e-03  7.9265598560924640e-03  1.1791642790007740e-02  1.5539285934921310e-02  1.9130589424075715e-02  2.2526955397259119e-02  2.5690440372946641e-02  2.8584246020025263e-02  3.1173335517103738e-02  3.3425147796088316e-02  3.5310369429710248e-02  3.6803714997896086e-02  3.7884662365405164e-02  3.8538089894997622e-02  3.8754768192506575e-02  3.8531669032332655e-02  3.7872067705466236e-02  3.6785430881554684e-02  3.5287098674933043e-02  3.3397785371738570e-02  3.1142936712824820e-02  2.8551991465558771e-02  2.5657600340162241e-02  2.2494855638804295e-02  1.9100580381840631e-02  1.5512716534595405e-02  1.1769839294507206e-02  7.9108094696857985e-03  3.9745602797017507e-03  0.0000000000000000e+00  0.0000000000000000e+00  4.0988927025174451e-03  8.1573421106727745e-03  1.2135239292903121e-02  1.5992458806788384e-02  1.9688960809544433e-02  2.3185013753218700e-02  2.6441556319881158e-02  2.9420701765041652e-02  3.2086371620530449e-02  3.4405030370410428e-02  3.6346479783780875e-02  3.7884662365405178e-02  3.8998418810334674e-02  3.9672144912680070e-02  3.9896299071644326e-02  3.9667721849250895e-02  3.8989743001332552e-02  3.7872067705466202e-02  3.6330450796838373e-02  3.4386184068754148e-02  3.2065435554692975e-02  2.9398489873761962e-02  2.6418944243847758e-02  2.3162915154162547e-02  1.9668305950631772e-02  1.5974176232896594e-02  1.2120240948367101e-02  8.1465117079613115e-03  4.0930766749278499e-03  0.0000000000000000e+00  0.0000000000000000e+00  4.1684560842626143e-03  8.2959728684346926e-03  1.2341757230891698e-02  1.6264997384984482e-02  2.0024966383176659e-02  2.3581248023363862e-02  2.6894104231700078e-02  2.9924987269184505e-02  3.2637183622425035e-02  3.4996560829309110e-02  3.6972375314760685e-02  3.8538089894997629e-02  3.9672144912680105e-02  4.0358627493905869e-02  4.0587789166096955e-02  4.0356372528533052e-02  3.9667721849250867e-02  3.8531669032332620e-02  3.6964203783052679e-02  3.4986953339986193e-02  3.2626511270794814e-02  2.9913665206778441e-02  2.6882579052874479e-02  2.3569985648942571e-02  2.0014441079612609e-02  1.6255682347001772e-02  1.2334116903370588e-02  8.2904569199508914e-03  4.1654947035721281e-03  0.0000000000000000e+00  0.0000000000000000e+00  4.1907525551886414e-03  8.3405369696741040e-03  1.2408339065885451e-02  1.6353123935578008e-02  2.0133939630677548e-02  2.3710143694865026e-02  2.7041771813021195e-02  3.0090052066236297e-02  3.2818051710385904e-02  3.5191427691913676e-02  3.7179238842753370e-02  3.8754768192506582e-02  3.9896299071644319e-02  4.0587789166096948e-02  4.0819392420971552e-02  4.0587789166096955e-02  3.9896299071644291e-02  3.8754768192506527e-02  3.7179238842753315e-02  3.5191427691913649e-02  3.2818051710385855e-02  3.0090052066236293e-02  2.7041771813021174e-02  2.3710143694865005e-02  2.0133939630677548e-02  1.6353123935578012e-02  1.2408339065885451e-02  8.3405369696741023e-03  4.1907525551886380e-03  0.0000000000000000e+00  0.0000000000000000e+00  4.1654947035721264e-03  8.2904569199508827e-03  1.2334116903370582e-02  1.6255682347001754e-02  2.0014441079612595e-02  2.3569985648942565e-02  2.6882579052874445e-02  2.9913665206778413e-02  3.2626511270794828e-02  3.4986953339986221e-02  3.6964203783052714e-02  3.8531669032332676e-02  3.9667721849250895e-02  4.0356372528533038e-02  4.0587789166096934e-02  4.0358627493905876e-02  3.9672144912680035e-02  3.8538089894997601e-02  3.6972375314760629e-02  3.4996560829309055e-02  3.2637183622424973e-02  2.9924987269184491e-02  2.6894104231700054e-02  2.3581248023363813e-02  2.0024966383176628e-02  1.6264997384984468e-02  1.2341757230891707e-02  8.2959728684346874e-03  4.1684560842626108e-03  0.0000000000000000e+00  0.0000000000000000e+00  4.0930766749278473e-03  8.1465117079612993e-03  1.2120240948367085e-02  1.5974176232896570e-02  1.9668305950631741e-02  2.3162915154162543e-02  2.6418944243847695e-02  2.9398489873761886e-02  3.2065435554692948e-02  3.4386184068754155e-02  3.6330450796838401e-02  3.7872067705466264e-02  3.8989743001332552e-02  3.9667721849250867e-02  3.9896299071644284e-02  3.9672144912680049e-02  3.8998418810334626e-02  3.7884662365405108e-02  3.6346479783780770e-02  3.4405030370410365e-02  3.2086371620530373e-02  2.9420701765041628e-02  2.6441556319881099e-02  2.3185013753218624e-02  1.9688960809544378e-02  1.5992458806788356e-02  1.2135239292903100e-02  8.1573421106727623e-03  4.0988927025174399e-03  0.0000000000000000e+00  0.0000000000000000e+00  3.9745602797017429e-03  7.9108094696857846e-03  1.1769839294507181e-02  1.5512716534595379e-02  1.9100580381840593e-02  2.2494855638804268e-02  2.5657600340162165e-02  2.8551991465558698e-02  3.1142936712824788e-02  3.3397785371738556e-02  3.5287098674933036e-02  3.6785430881554705e-02  3.7872067705466229e-02  3.8531669032332606e-02  3.8754768192506513e-02  3.8538089894997539e-02  3.7884662365405102e-02  3.6803714997895996e-02  3.5310369429710130e-02  3.3425147796088198e-02  3.1173335517103634e-02  2.8584246020025197e-02  2.5690440372946547e-02  2.2526955397259046e-02  1.9130589424075646e-02  1.5539285934921267e-02  1.1791642790007710e-02  7.9265598560924379e-03  3.9830220824223070e-03  0.0000000000000000e+00  0.0000000000000000e+00  3.8116390303097728e-03  7.5867161906015401e-03  1.1287912255049172e-02  1.4877882782909925e-02  1.8319351263317973e-02  2.1575313077245400e-02  2.4609368203003273e-02  2.7386186318759782e-02  2.9872092902000560e-02  3.2035750593390665e-02  3.3848897918470053e-02  3.5287098674933029e-02  3.6330450796838394e-02  3.6964203783052665e-02  3.7179238842753301e-02  3.6972375314760622e-02  3.6346479783780763e-02  3.5310369429710144e-02  3.3878517069763685e-02  3.2070580571410080e-02  2.9910792380108131e-02  2.7427254583917954e-02  2.4651190323534185e-02  2.1616202967448355e-02  1.8357590290213416e-02  1.4911752365697306e-02  1.1315719885492482e-02  7.6068153374442681e-03  3.8224443479512554e-03  0.0000000000000000e+00  0.0000000000000000e+00  3.6065829182830187e-03  7.1787460082657975e-03  1.0681169461018323e-02  1.4078508792638736e-02  1.7335482865498276e-02  2.0417066424706681e-02  2.3288804237294902e-02  2.5917250443287985e-02  2.8270522482305688e-02  3.0318945376016322e-02  3.2035750593390665e-02  3.3397785371738563e-02  3.4386184068754148e-02  3.4986953339986186e-02  3.5191427691913607e-02  3.4996560829309034e-02  3.4405030370410351e-02  3.3425147796088205e-02  3.2070580571410053e-02  3.0359907794900543e-02  2.8316043121816941e-02  2.5965567901166484e-02  2.3338022603843930e-02  2.0465205240135370e-02  1.7380521548925543e-02  1.4118423709290480e-02  1.0713962995904614e-02  7.2024683052013981e-03  3.6193481536205200e-03  0.0000000000000000e+00  0.0000000000000000e+00  3.3621681743949438e-03  6.6924215300329347e-03  9.9578221971392787e-03  1.3125409161188845e-02  1.6162280342934984e-02  1.9035771667241668e-02  2.1713749213210502e-02  2.4165017996305320e-02  2.6359837638135021e-02  2.8270522482305667e-02  2.9872092902000554e-02  3.1142936712824799e-02  3.2065435554692989e-02  3.2626511270794814e-02  3.2818051710385855e-02  3.2637183622424959e-02  3.2086371620530352e-02  3.1173335517103613e-02  2.9910792380108131e-02  2.8316043121816941e-02  2.6410435005783453e-02  2.4218740061864141e-02  2.1768494226825995e-02  1.9089342647624203e-02  1.6212432975071075e-02  1.3169891027960194e-02  9.9944026819350530e-03  6.7189132837591091e-03  3.3764425426613164e-03  0.0000000000000000e+00  0.0000000000000000e+00  3.0815972957155295e-03  6.1341146524019306e-03  9.1273465256545751e-03  1.2031066999646263e-02  1.4815105193529628e-02  1.7449508951152982e-02  1.9904811809841667e-02  2.2152406750095829e-02  2.4165017996305337e-02  2.5917250443287985e-02  2.7386186318759793e-02  2.8551991465558719e-02  2.9398489873761910e-02  2.9913665206778416e-02  3.0090052066236283e-02  2.9924987269184470e-02  2.9420701765041610e-02  2.8584246020025201e-02  2.7427254583917961e-02  2.5965567901166484e-02  2.4218740061864141e-02  2.2209469103165399e-02  1.9962990930585889e-02  1.7506478533759792e-02  1.4868484903116158e-02  1.2078461271548662e-02  9.1663727063597458e-03  6.1624216215642328e-03  3.0968775841713268e-03  0.0000000000000000e+00  0.0000000000000000e+00  2.7684151867223331e-03  5.5108794800291993e-03  8.2002343851225682e-03  1.0809305467768775e-02  1.3310970387860397e-02  1.5678305367358467e-02  1.7884823987509620e-02  1.9904811809841643e-02  2.1713749213210506e-02  2.3288804237294906e-02  2.4609368203003284e-02  2.5657600340162175e-02  2.6418944243847692e-02  2.6882579052874427e-02  2.7041771813021150e-02  2.6894104231700047e-02  2.6441556319881099e-02  2.5690440372946575e-02  2.4651190323534213e-02  2.3338022603843916e-02  2.1768494226825981e-02  1.9962990930585886e-02  1.7944182263990919e-02  1.5736481065855935e-02  1.3365541889307338e-02  1.0857826874617029e-02  8.2402590138677990e-03  5.5399725499044612e-03  2.7841594034066033e-03  0.0000000000000000e+00  0.0000000000000000e+00  2.4264273187954615e-03  4.8302890211149637e-03  7.1877499170605779e-03  9.4749657283131738e-03  1.1668142917277548e-02  1.3743666010118852e-02  1.5678305367358467e-02  1.7449508951152964e-02  1.9035771667241668e-02  2.0417066424706667e-02  2.1575313077245379e-02  2.2494855638804261e-02  2.3162915154162519e-02  2.3569985648942544e-02  2.3710143694864971e-02  2.3581248023363800e-02  2.3185013753218620e-02  2.2526955397259046e-02  2.1616202967448355e-02  2.0465205240135363e-02  1.9089342647624186e-02  1.7506478533759792e-02  1.5736481065855932e-02  1.3800748618459932e-02  1.1721768924807863e-02  9.5227370262609742e-03  7.2272496175674389e-03  4.8590845845795233e-03  2.4420652614745510e-03  0.0000000000000000e+00  0.0000000000000000e+00  2.0596254144626771e-03  4.1002864359891977e-03  6.1017068007372709e-03  8.0436118959359218e-03  9.9057789521488169e-03  1.1668142917277559e-02  1.3310970387860416e-02  1.4815105193529634e-02  1.6162280342935001e-02  1.7335482865498266e-02  1.8319351263317955e-02  1.9100580381840607e-02  1.9668305950631730e-02  2.0014441079612588e-02  2.0133939630677521e-02  2.0024966383176596e-02  1.9688960809544357e-02  1.9130589424075636e-02  1.8357590290213423e-02  1.7380521548925543e-02  1.6212432975071071e-02  1.4868484903116158e-02  1.3365541889307343e-02  1.1721768924807868e-02  9.9562558741677892e-03  8.0886913479632627e-03  6.1391009529389870e-03  4.1276575561464057e-03  2.0745637589156354e-03  0.0000000000000000e+00  0.0000000000000000e+00  1.6721254845001921e-03  3.3290599404634013e-03  4.9542795530531968e-03  6.5312796315407321e-03  8.0436118959359235e-03  9.4749657283131842e-03  1.0809305467768782e-02  1.2031066999646269e-02  1.3125409161188852e-02  1.4078508792638732e-02  1.4877882782909919e-02  1.5512716534595383e-02  1.5974176232896552e-02  1.6255682347001740e-02  1.6353123935577980e-02  1.6264997384984436e-02  1.5992458806788321e-02  1.5539285934921248e-02  1.4911752365697297e-02  1.4118423709290477e-02  1.3169891027960194e-02  1.2078461271548662e-02  1.0857826874617