<?xml version="1.0"?>
<VTKFile type="UnstructuredGrid"  version="0.1"  >
<UnstructuredGrid>
<Piece  NumberOfPoints="961" NumberOfCells="1800">
<Points>
<DataArray  type="Float64"  NumberOfComponents="3"  format="ascii">-2 -2 0  -1.866666666666667 -2 0  -1.733333333333333 -2 0  -1.6 -2 0  -1.466666666666667 -2 0  -1.333333333333333 -2 0  -1.2 -2 0  -1.066666666666667 -2 0  -0.9333333333333333 -2 0  -0.8 -2 0  -0.6666666666666667 -2 0  -0.5333333333333334 -2 0  -0.3999999999999999 -2 0  -0.2666666666666666 -2 0  -0.1333333333333333 -2 0  0 -2 0  0.1333333333333333 -2 0  0.2666666666666666 -2 0  0.3999999999999999 -2 0  0.5333333333333332 -2 0  0.6666666666666665 -2 0  0.7999999999999998 -2 0  0.9333333333333331 -2 0  1.066666666666667 -2 0  1.2 -2 0  1.333333333333333 -2 0  1.466666666666667 -2 0  1.6 -2 0  1.733333333333333 -2 0  1.866666666666667 -2 0  2 -2 0  -2 -1.866666666666667 0  -1.866666666666667 -1.866666666666667 0  -1.733333333333333 -1.866666666666667 0  -1.6 -1.866666666666667 0  -1.466666666666667 -1.866666666666667 0  -1.333333333333333 -1.866666666666667 0  -1.2 -1.866666666666667 0  -1.066666666666667 -1.866666666666667 0  -0.9333333333333333 -1.866666666666667 0  -0.8 -1.866666666666667 0  -0.6666666666666667 -1.866666666666667 0  -0.5333333333333334 -1.866666666666667 0  -0.3999999999999999 -1.866666666666667 0  -0.2666666666666666 -1.866666666666667 0  -0.1333333333333333 -1.866666666666667 0  0 -1.866666666666667 0  0.1333333333333333 -1.866666666666667 0  0.2666666666666666 -1.866666666666667 0  0.3999999999999999 -1.866666666666667 0  0.5333333333333332 -1.866666666666667 0  0.6666666666666665 -1.866666666666667 0  0.7999999999999998 -1.866666666666667 0  0.9333333333333331 -1.866666666666667 0  1.066666666666667 -1.866666666666667 0  1.2 -1.866666666666667 0  1.333333333333333 -1.866666666666667 0  1.466666666666667 -1.866666666666667 0  1.6 -1.866666666666667 0  1.733333333333333 -1.866666666666667 0  1.866666666666667 -1.866666666666667 0  2 -1.866666666666667 0  -2 -1.733333333333333 0  -1.866666666666667 -1.733333333333333 0  -1.733333333333333 -1.733333333333333 0  -1.6 -1.733333333333333 0  -1.466666666666667 -1.733333333333333 0  -1.333333333333333 -1.733333333333333 0  -1.2 -1.733333333333333 0  -1.066666666666667 -1.733333333333333 0  -0.9333333333333333 -1.733333333333333 0  -0.8 -1.733333333333333 0  -0.6666666666666667 -1.733333333333333 0  -0.5333333333333334 -1.733333333333333 0  -0.3999999999999999 -1.733333333333333 0  -0.2666666666666666 -1.733333333333333 0  -0.1333333333333333 -1.733333333333333 0  0 -1.733333333333333 0  0.1333333333333333 -1.733333333333333 0  0.2666666666666666 -1.733333333333333 0  0.3999999999999999 -1.733333333333333 0  0.5333333333333332 -1.733333333333333 0  0.6666666666666665 -1.733333333333333 0  0.7999999999999998 -1.733333333333333 0  0.9333333333333331 -1.733333333333333 0  1.066666666666667 -1.733333333333333 0  1.2 -1.733333333333333 0  1.333333333333333 -1.733333333333333 0  1.466666666666667 -1.733333333333333 0  1.6 -1.733333333333333 0  1.733333333333333 -1.733333333333333 0  1.866666666666667 -1.733333333333333 0  2 -1.733333333333333 0  -2 -1.6 0  -1.866666666666667 -1.6 0  -1.733333333333333 -1.6 0  -1.6 -1.6 0  -1.466666666666667 -1.6 0  -1.333333333333333 -1.6 0  -1.2 -1.6 0  -1.066666666666667 -1.6 0  -0.9333333333333333 -1.6 0  -0.8 -1.6 0  -0.6666666666666667 -1.6 0  -0.5333333333333334 -1.6 0  -0.3999999999999999 -1.6 0  -0.2666666666666666 -1.6 0  -0.1333333333333333 -1.6 0  0 -1.6 0  0.1333333333333333 -1.6 0  0.2666666666666666 -1.6 0  0.3999999999999999 -1.6 0  0.5333333333333332 -1.6 0  0.6666666666666665 -1.6 0  0.7999999999999998 -1.6 0  0.9333333333333331 -1.6 0  1.066666666666667 -1.6 0  1.2 -1.6 0  1.333333333333333 -1.6 0  1.466666666666667 -1.6 0  1.6 -1.6 0  1.733333333333333 -1.6 0  1.866666666666667 -1.6 0  2 -1.6 0  -2 -1.466666666666667 0  -1.866666666666667 -1.466666666666667 0  -1.733333333333333 -1.466666666666667 0  -1.6 -1.466666666666667 0  -1.466666666666667 -1.466666666666667 0  -1.333333333333333 -1.466666666666667 0  -1.2 -1.466666666666667 0  -1.066666666666667 -1.466666666666667 0  -0.9333333333333333 -1.466666666666667 0  -0.8 -1.466666666666667 0  -0.6666666666666667 -1.466666666666667 0  -0.5333333333333334 -1.466666666666667 0  -0.3999999999999999 -1.466666666666667 0  -0.2666666666666666 -1.466666666666667 0  -0.1333333333333333 -1.466666666666667 0  0 -1.466666666666667 0  0.1333333333333333 -1.466666666666667 0  0.2666666666666666 -1.466666666666667 0  0.3999999999999999 -1.466666666666667 0  0.5333333333333332 -1.466666666666667 0  0.6666666666666665 -1.466666666666667 0  0.7999999999999998 -1.466666666666667 0  0.9333333333333331 -1.466666666666667 0  1.066666666666667 -1.466666666666667 0  1.2 -1.466666666666667 0  1.333333333333333 -1.466666666666667 0  1.466666666666667 -1.466666666666667 0  1.6 -1.466666666666667 0  1.733333333333333 -1.466666666666667 0  1.866666666666667 -1.466666666666667 0  2 -1.466666666666667 0  -2 -1.333333333333333 0  -1.866666666666667 -1.333333333333333 0  -1.733333333333333 -1.333333333333333 0  -1.6 -1.333333333333333 0  -1.466666666666667 -1.333333333333333 0  -1.333333333333333 -1.333333333333333 0  -1.2 -1.333333333333333 0  -1.066666666666667 -1.333333333333333 0  -0.9333333333333333 -1.333333333333333 0  -0.8 -1.333333333333333 0  -0.6666666666666667 -1.333333333333333 0  -0.5333333333333334 -1.333333333333333 0  -0.3999999999999999 -1.333333333333333 0  -0.2666666666666666 -1.333333333333333 0  -0.1333333333333333 -1.333333333333333 0  0 -1.333333333333333 0  0.1333333333333333 -1.333333333333333 0  0.2666666666666666 -1.333333333333333 0  0.3999999999999999 -1.333333333333333 0  0.5333333333333332 -1.333333333333333 0  0.6666666666666665 -1.333333333333333 0  0.7999999999999998 -1.333333333333333 0  0.9333333333333331 -1.333333333333333 0  1.066666666666667 -1.333333333333333 0  1.2 -1.333333333333333 0  1.333333333333333 -1.333333333333333 0  1.466666666666667 -1.333333333333333 0  1.6 -1.333333333333333 0  1.733333333333333 -1.333333333333333 0  1.866666666666667 -1.333333333333333 0  2 -1.333333333333333 0  -2 -1.2 0  -1.866666666666667 -1.2 0  -1.733333333333333 -1.2 0  -1.6 -1.2 0  -1.466666666666667 -1.2 0  -1.333333333333333 -1.2 0  -1.2 -1.2 0  -1.066666666666667 -1.2 0  -0.9333333333333333 -1.2 0  -0.8 -1.2 0  -0.6666666666666667 -1.2 0  -0.5333333333333334 -1.2 0  -0.3999999999999999 -1.2 0  -0.2666666666666666 -1.2 0  -0.1333333333333333 -1.2 0  0 -1.2 0  0.1333333333333333 -1.2 0  0.2666666666666666 -1.2 0  0.3999999999999999 -1.2 0  0.5333333333333332 -1.2 0  0.6666666666666665 -1.2 0  0.7999999999999998 -1.2 0  0.9333333333333331 -1.2 0  1.066666666666667 -1.2 0  1.2 -1.2 0  1.333333333333333 -1.2 0  1.466666666666667 -1.2 0  1.6 -1.2 0  1.733333333333333 -1.2 0  1.866666666666667 -1.2 0  2 -1.2 0  -2 -1.066666666666667 0  -1.866666666666667 -1.066666666666667 0  -1.733333333333333 -1.066666666666667 0  -1.6 -1.066666666666667 0  -1.466666666666667 -1.066666666666667 0  -1.333333333333333 -1.066666666666667 0  -1.2 -1.066666666666667 0  -1.066666666666667 -1.066666666666667 0  -0.9333333333333333 -1.066666666666667 0  -0.8 -1.066666666666667 0  -0.6666666666666667 -1.066666666666667 0  -0.5333333333333334 -1.066666666666667 0  -0.3999999999999999 -1.066666666666667 0  -0.2666666666666666 -1.066666666666667 0  -0.1333333333333333 -1.066666666666667 0  0 -1.066666666666667 0  0.1333333333333333 -1.066666666666667 0  0.2666666666666666 -1.066666666666667 0  0.3999999999999999 -1.066666666666667 0  0.5333333333333332 -1.066666666666667 0  0.6666666666666665 -1.066666666666667 0  0.7999999999999998 -1.066666666666667 0  0.9333333333333331 -1.066666666666667 0  1.066666666666667 -1.066666666666667 0  1.2 -1.066666666666667 0  1.333333333333333 -1.066666666666667 0  1.466666666666667 -1.066666666666667 0  1.6 -1.066666666666667 0  1.733333333333333 -1.066666666666667 0  1.866666666666667 -1.066666666666667 0  2 -1.066666666666667 0  -2 -0.9333333333333333 0  -1.866666666666667 -0.9333333333333333 0  -1.733333333333333 -0.9333333333333333 0  -1.6 -0.9333333333333333 0  -1.466666666666667 -0.9333333333333333 0  -1.333333333333333 -0.9333333333333333 0  -1.2 -0.9333333333333333 0  -1.066666666666667 -0.9333333333333333 0  -0.9333333333333333 -0.9333333333333333 0  -0.8 -0.9333333333333333 0  -0.6666666666666667 -0.9333333333333333 0  -0.5333333333333334 -0.9333333333333333 0  -0.3999999999999999 -0.9333333333333333 0  -0.2666666666666666 -0.9333333333333333 0  -0.1333333333333333 -0.9333333333333333 0  0 -0.9333333333333333 0  0.1333333333333333 -0.9333333333333333 0  0.2666666666666666 -0.9333333333333333 0  0.3999999999999999 -0.9333333333333333 0  0.5333333333333332 -0.9333333333333333 0  0.6666666666666665 -0.9333333333333333 0  0.7999999999999998 -0.9333333333333333 0  0.9333333333333331 -0.9333333333333333 0  1.066666666666667 -0.9333333333333333 0  1.2 -0.9333333333333333 0  1.333333333333333 -0.9333333333333333 0  1.466666666666667 -0.9333333333333333 0  1.6 -0.9333333333333333 0  1.733333333333333 -0.9333333333333333 0  1.866666666666667 -0.9333333333333333 0  2 -0.9333333333333333 0  -2 -0.8 0  -1.866666666666667 -0.8 0  -1.733333333333333 -0.8 0  -1.6 -0.8 0  -1.466666666666667 -0.8 0  -1.333333333333333 -0.8 0  -1.2 -0.8 0  -1.066666666666667 -0.8 0  -0.9333333333333333 -0.8 0  -0.8 -0.8 0  -0.6666666666666667 -0.8 0  -0.5333333333333334 -0.8 0  -0.3999999999999999 -0.8 0  -0.2666666666666666 -0.8 0  -0.1333333333333333 -0.8 0  0 -0.8 0  0.1333333333333333 -0.8 0  0.2666666666666666 -0.8 0  0.3999999999999999 -0.8 0  0.5333333333333332 -0.8 0  0.6666666666666665 -0.8 0  0.7999999999999998 -0.8 0  0.9333333333333331 -0.8 0  1.066666666666667 -0.8 0  1.2 -0.8 0  1.333333333333333 -0.8 0  1.466666666666667 -0.8 0  1.6 -0.8 0  1.733333333333333 -0.8 0  1.866666666666667 -0.8 0  2 -0.8 0  -2 -0.6666666666666667 0  -1.866666666666667 -0.
[...]
<PointData  Scalars="f_3403"> 
<DataArray  type="Float64"  Name="f_3403"  format="ascii">0.0000000000000000e+00  0.0000000000000000e+00  0.0000000000000000e+00  0.0000000000000000e+00  0.0000000000000000e+00  0.0000000000000000e+00  0.0000000000000000e+00  0.0000000000000000e+00  0.0000000000000000e+00  0.0000000000000000e+00  0.0000000000000000e+00  0.0000000000000000e+00  0.0000000000000000e+00  0.0000000000000000e+00  0.0000000000000000e+00  0.0000000000000000e+00  0.0000000000000000e+00  0.0000000000000000e+00  0.0000000000000000e+00  0.0000000000000000e+00  0.0000000000000000e+00  0.0000000000000000e+00  0.0000000000000000e+00  0.0000000000000000e+00  0.0000000000000000e+00  0.0000000000000000e+00  0.0000000000000000e+00  0.0000000000000000e+00  0.0000000000000000e+00  0.0000000000000000e+00  0.0000000000000000e+00  0.0000000000000000e+00  4.4243758200557807e-04  8.7988484347410962e-04  1.3083376218543106e-03  1.7236306237850029e-03  2.1215340322956635e-03  2.4978080829383166e-03  2.8482557413072838e-03  3.1687855342915497e-03  3.4554869278458351e-03  3.7047163311636033e-03  3.9131894046782424e-03  4.0780739430025933e-03  4.1970769592728939e-03  4.2685196474222392e-03  4.2913945908394915e-03  4.2654008343797900e-03  4.1909541142241286e-03  4.0691714824973120e-03  3.9018315835779452e-03  3.6913137437441217e-03  3.4405206455684705e-03  3.1527905255360309e-03  2.8318054588483779e-03  2.4815023456042115e-03  2.1059927398750030e-03  1.7094968514583806e-03  1.2962963533354223e-03  8.7071125129516147e-04  4.3711175048927723e-04  0.0000000000000000e+00  0.0000000000000000e+00  8.7988484347410994e-04  1.7502708548847905e-03  2.6029108122794971e-03  3.4294285837163773e-03  4.2213765942150580e-03  4.9703062082821553e-03  5.6678604813023342e-03  6.3058948411074877e-03  6.8766252796601448e-03  7.3727986573545404e-03  7.7878759978337901e-03  8.1162171845082735e-03  8.3532542961207018e-03  8.4956409532221892e-03  8.5413664333040540e-03  8.4898257970387140e-03  8.3418406045824376e-03  8.0996286654052944e-03  7.7667252860219660e-03  7.3478622732761198e-03  6.8488141577892911e-03  6.2762234257622215e-03  5.6374177839485515e-03  4.9402325482512206e-03  4.1928501978585903e-03  3.4036671937688260e-03  2.5811957337782583e-03  1.7340058124576244e-03  8.7071125129516180e-04  0.0000000000000000e+00  0.0000000000000000e+00  1.3083376218543110e-03  2.6029108122794971e-03  3.8712718119362920e-03  5.1008762324443518e-03  6.2791186353242023e-03  7.3934125000373998e-03  8.4313168152074635e-03  9.3807102607579105e-03  1.0230009012180125e-02  1.0968418716389344e-02  1.1586206469780281e-02  1.2074975297378440e-02  1.2427922021083077e-02  1.2640059656156168e-02  1.2708387552927429e-02  1.2631996199579469e-02  1.2412098564004067e-02  1.2051985600847831e-02  1.1556909532877736e-02  1.0933904162275696e-02  1.0191556241870714e-02  9.3397453921303421e-03  8.3893718744650018e-03  7.3520915789367768e-03  6.2400758908275891e-03  5.0658108764155317e-03  3.8419458084809244e-03  2.5811957337782592e-03  1.2962963533354221e-03  0.0000000000000000e+00  0.0000000000000000e+00  1.7236306237850044e-03  3.4294285837163786e-03  5.1008762324443483e-03  6.7213744576949796e-03  8.2742734180210487e-03  9.7429650861450088e-03  1.1111042004282617e-02  1.2362522074401453e-02  1.3482132819216988e-02  1.4455641847502105e-02  1.5270214413060604e-02  1.5914774772586571e-02  1.6380346024491916e-02  1.6660343483754416e-02  1.6750799399593102e-02  1.6650501698638766e-02  1.6361035973440012e-02  1.5886727510255685e-02  1.5234488036715194e-02  1.4413579315855235e-02  1.3435312010299440e-02  1.2312702795720573e-02  1.1060115095513731e-02  9.6929088301754441e-03  8.2271222438807922e-03  6.6792044168458697e-03  5.0658108764155300e-03  3.4036671937688239e-03  1.7094968514583802e-03  0.0000000000000000e+00  0.0000000000000000e+00  2.1215340322956674e-03  4.2213765942150632e-03  6.2791186353242023e-03  8.2742734180210453e-03  1.0186309897225434e-02  1.1994760606995359e-02  1.3679412052284710e-02  1.5220577811059247e-02  1.6599446040952155e-02  1.7798484762763998e-02  1.8801881170775952e-02  1.9595986141794388e-02  2.0169732667976024e-02  2.0514997416046298e-02  2.0626878006172758e-02  2.0503864602615947e-02  2.0147892451645322e-02  1.9564271325036599e-02  1.8761497539499367e-02  1.7750963396060485e-02  1.6546586645103525e-02  1.5164388198106936e-02  1.3622049251940316e-02  1.1938479000318815e-02  1.0133421192822942e-02  8.2271222438807853e-03  6.2400758908275848e-03  4.1928501978585860e-03  2.1059927398750021e-03  0.0000000000000000e+00  0.0000000000000000e+00  2.4978080829383209e-03  4.9703062082821605e-03  7.3934125000374032e-03  9.7429650861450105e-03  1.1994760606995364e-02  1.4124678492494592e-02  1.6108902103588830e-02  1.7924237692701191e-02  1.9548521603027127e-02  2.0961096127629211e-02  2.2143326005451762e-02  2.3079121541770522e-02  2.3755431456775070e-02  2.4162669121866761e-02  2.4295039825356083e-02  2.4150743761857330e-02  2.3732038902541108e-02  2.3045158878193771e-02  2.2100092446599773e-02  2.0910241927551910e-02  1.9491987142286796e-02  1.7864188021597303e-02  1.6047662527169042e-02  1.4064676547667179e-02  1.1938479000318816e-02  9.6929088301754476e-03  7.3520915789367777e-03  4.9402325482512206e-03  2.4815023456042111e-03  0.0000000000000000e+00  0.0000000000000000e+00  2.8482557413072890e-03  5.6678604813023411e-03  8.4313168152074704e-03  1.1111042004282624e-02  1.3679412052284717e-02  1.6108902103588833e-02  1.8372336735680388e-02  2.0443251814121974e-02  2.2296357282317356e-02  2.3908078687703366e-02  2.5257145528960592e-02  2.6325187630970293e-02  2.7097297434356897e-02  2.7562516694777266e-02  2.7714210605687319e-02  2.7550300382544465e-02  2.7073336125405786e-02  2.6290404287985129e-02  2.5212877131072529e-02  2.3856023880432595e-02  2.2238513767103583e-02  2.0381848709415871e-02  1.8309767390147016e-02  1.6047662527169024e-02  1.3622049251940304e-02  1.1060115095513726e-02  8.3893718744649896e-03  5.6374177839485480e-03  2.8318054588483748e-03  0.0000000000000000e+00  0.0000000000000000e+00  3.1687855342915549e-03  6.3058948411074981e-03  9.3807102607579261e-03  1.2362522074401470e-02  1.5220577811059260e-02  1.7924237692701198e-02  2.0443251814121967e-02  2.2748161323789699e-02  2.4810812061041996e-02  2.6604956121465347e-02  2.8106905931576727e-02  2.9296197703931364e-02  3.0156217404881371e-02  3.0674743006151323e-02  3.0844361786880603e-02  3.0662730355608705e-02  3.0132657038148967e-02  2.9262000191069427e-02  2.8063390524466918e-02  2.6553799264714188e-02  2.4753985647062500e-02  2.2687865693454042e-02  2.0381848709415864e-02  1.7864188021597286e-02  1.5164388198106922e-02  1.2312702795720559e-02  9.3397453921303195e-03  6.2762234257622129e-03  3.1527905255360244e-03  0.0000000000000000e+00  0.0000000000000000e+00  3.4554869278458425e-03  6.8766252796601578e-03  1.0230009012180147e-02  1.3482132819217015e-02  1.6599446040952186e-02  1.9548521603027145e-02  2.2296357282317384e-02  2.4810812061042006e-02  2.7061165217676601e-02  2.9018771578367391e-02  3.0657774412944074e-02  3.1955828995196799e-02  3.2894785719274865e-02  3.3461282316084306e-02  3.3647200123074011e-02  3.3449949039753027e-02  3.2872558842529799e-02  3.1923569698349634e-02  3.0616730560514969e-02  2.8970529138740871e-02  2.7007589877846138e-02  2.4753985647062545e-02  2.2238513767103622e-02  1.9491987142286796e-02  1.6546586645103514e-02  1.3435312010299433e-02  1.0191556241870705e-02  6.8488141577892842e-03  3.4405206455684657e-03  0.0000000000000000e+00  0.0000000000000000e+00  3.7047163311636107e-03  7.3727986573545569e-03  1.0968418716389358e-02  1.4455641847502131e-02  1.7798484762764036e-02  2.0961096127629225e-02  2.3908078687703369e-02  2.6604956121465340e-02  2.9018771578367391e-02  3.1118789571193135e-02  3.2877260041315901e-02  3.4270194288162657e-02  3.5278097976967099e-02  3.5886607089717158e-02  3.6086978441906642e-02  3.5876396731883163e-02  3.5258074050187840e-02  3.4241134028151057e-02  3.2840289797833759e-02  3.1075341046168301e-02  2.8970529138740878e-02  2.6553799264714226e-02  2.3856023880432620e-02  2.0910241927551917e-02  1.7750963396060488e-02  1.4413579315855228e-02  1.0933904162275689e-02  7.3478622732761154e-03  3.6913137437441187e-03  0.0000000000000000e+00  0.0000000000000000e+00  3.9131894046782502e-03  7.7878759978338057e-03  1.1586206469780294e-02  1.5270214413060623e-02  1.8801881170775980e-02  2.2143326005451765e-02  2.5257145528960606e-02  2.8106905931576720e-02  3.0657774412944074e-02  3.2877260041315914e-02  3.4736020653987468e-02  3.6208682722692030e-02  3.7274616327331818e-02  3.7918608018991162e-02  3.8131380390474055e-02  3.7909918063655366e-02  3.7257574526175737e-02  3.6183951407772814e-02  3.4704559742058952e-02  3.2840289797833752e-02  3.0616730560514976e-02  2.8063390524466974e-02  2.5212877131072581e-02  2.2100092446599801e-02  1.8761497539499378e-02  1.5234488036715205e-02  1.1556909532877748e-02  7.7667252860219686e-03  3.9018315835779465e-03  0.0000000000000000e+00  0.0000000000000000e+00  4.0780739430026011e-03  8.1162171845082908e-03  1.2074975297378450e-02  1.5914774772586585e-02  1.9595986141794398e-02  2.3079121541770536e-02  2.6325187630970293e-02  2.9296197703931378e-02  3.1955828995196812e-02  3.4270194288162657e-02  3.6208682722692044e-02  3.7744814552752616e-02  3.8857049573047052e-02  3.9529489547453056e-02  3.9752421217923398e-02  3.9522657785715488e-02  3.8843652076339059e-02  3.7725372471204117e-02  3.6183951407772842e-02  3.4241134028151092e-02  3.1923569698349682e-02  2.9262000191069507e-02  2.6290404287985195e-02  2.3045158878193799e-02  1.9564271325036634e-02  1.5886727510255702e-02  1.2051985600847854e-02  8.0996286654053083e-03  4.0691714824973172e-03  0.0000000000000000e+00  0.0000000000000000e+00  4.1970769592728973e-03  8.3532542961207087e-03  1.2427922021083084e-02  1.6380346024491926e-02  2.0169732667976042e-02  2.3755431456775087e-02  2.7097297434356900e-02  3.0156217404881409e-02  3.2894785719274899e-02  3.5278097976967161e-02  3.7274616327331880e-02  3.8857049573047094e-02  4.0003186048653598e-02  4.0696617828472711e-02  4.0927301199501470e-02  4.0691909940626970e-02  3.9993953691277985e-02  3.8843652076339018e-02  3.7257574526175716e-02  3.5258074050187847e-02  3.2872558842529834e-02  3.0132657038149029e-02  2.7073336125405845e-02  2.3732038902541119e-02  2.0147892451645340e-02  1.6361035973440026e-02  1.2412098564004085e-02  8.3418406045824411e-03  4.1909541142241312e-03  0.0000000000000000e+00  0.0000000000000000e+00  4.2685196474222436e-03  8.4956409532221857e-03  1.2640059656156154e-02  1.6660343483754420e-02  2.0514997416046309e-02  2.4162669121866775e-02  2.7562516694777276e-02  3.0674743006151355e-02  3.3461282316084348e-02  3.5886607089717200e-02  3.7918608018991197e-02  3.9529489547453063e-02  4.0696617828472705e-02  4.1403258587098694e-02  4.1639148798866057e-02  4.1400857864071272e-02  4.0691909940626964e-02  3.9522657785715440e-02  3.7909918063655325e-02  3.5876396731883149e-02  3.3449949039753041e-02  3.0662730355608750e-02  2.7550300382544499e-02  2.4150743761857323e-02  2.0503864602615950e-02  1.6650501698638766e-02  1.2631996199579469e-02  8.4898257970387071e-03  4.2654008343797874e-03  0.0000000000000000e+00  0.0000000000000000e+00  4.2913945908394941e-03  8.5413664333040575e-03  1.2708387552927422e-02  1.6750799399593088e-02  2.0626878006172751e-02  2.4295039825356083e-02  2.7714210605687330e-02  3.0844361786880652e-02  3.3647200123074074e-02  3.6086978441906670e-02  3.8131380390474062e-02  3.9752421217923412e-02  4.0927301199501477e-02  4.1639148798866030e-02  4.1877597096088646e-02  4.1639148798866023e-02  4.0927301199501429e-02  3.9752421217923328e-02  3.8131380390474007e-02  3.6086978441906628e-02  3.3647200123074018e-02  3.0844361786880617e-02  2.7714210605687302e-02  2.4295039825356048e-02  2.0626878006172751e-02  1.6750799399593095e-02  1.2708387552927417e-02  8.5413664333040540e-03  4.2913945908394898e-03  0.0000000000000000e+00  0.0000000000000000e+00  4.2654008343797883e-03  8.4898257970387036e-03  1.2631996199579458e-02  1.6650501698638756e-02  2.0503864602615940e-02  2.4150743761857323e-02  2.7550300382544479e-02  3.0662730355608729e-02  3.3449949039753069e-02  3.5876396731883198e-02  3.7909918063655380e-02  3.9522657785715509e-02  4.0691909940626977e-02  4.1400857864071258e-02  4.1639148798866009e-02  4.1403258587098660e-02  4.0696617828472663e-02  3.9529489547453001e-02  3.7918608018991135e-02  3.5886607089717130e-02  3.3461282316084300e-02  3.0674743006151323e-02  2.7562516694777248e-02  2.4162669121866716e-02  2.0514997416046270e-02  1.6660343483754406e-02  1.2640059656156159e-02  8.4956409532221822e-03  4.2685196474222366e-03  0.0000000000000000e+00  0.0000000000000000e+00  4.1909541142241278e-03  8.3418406045824272e-03  1.2412098564004062e-02  1.6361035973439998e-02  2.0147892451645312e-02  2.3732038902541084e-02  2.7073336125405790e-02  3.0132657038148956e-02  3.2872558842529799e-02  3.5258074050187875e-02  3.7257574526175757e-02  3.8843652076339094e-02  3.9993953691277985e-02  4.0691909940626950e-02  4.0927301199501422e-02  4.0696617828472684e-02  4.0003186048653543e-02  3.8857049573046976e-02  3.7274616327331755e-02  3.5278097976967043e-02  3.2894785719274823e-02  3.0156217404881360e-02  2.7097297434356842e-02  2.3755431456775011e-02  2.0169732667975993e-02  1.6380346024491899e-02  1.2427922021083056e-02  8.3532542961206879e-03  4.1970769592728878e-03  0.0000000000000000e+00  0.0000000000000000e+00  4.0691714824973120e-03  8.0996286654052944e-03  1.2051985600847834e-02  1.5886727510255674e-02  1.9564271325036603e-02  2.3045158878193760e-02  2.6290404287985108e-02  2.9262000191069421e-02  3.1923569698349641e-02  3.4241134028151057e-02  3.6183951407772814e-02  3.7725372471204117e-02  3.8843652076339073e-02  3.9522657785715454e-02  3.9752421217923321e-02  3.9529489547452980e-02  3.8857049573046976e-02  3.7744814552752498e-02  3.6208682722691933e-02  3.4270194288162567e-02  3.1955828995196736e-02  2.9296197703931326e-02  2.6325187630970227e-02  2.3079121541770463e-02  1.9595986141794339e-02  1.5914774772586536e-02  1.2074975297378410e-02  8.1162171845082579e-03  4.0780739430025855e-03  0.0000000000000000e+00  0.0000000000000000e+00  3.9018315835779439e-03  7.7667252860219634e-03  1.1556909532877730e-02  1.5234488036715187e-02  1.8761497539499360e-02  2.2100092446599780e-02  2.5212877131072536e-02  2.8063390524466929e-02  3.0616730560514959e-02  3.2840289797833724e-02  3.4704559742058945e-02  3.6183951407772835e-02  3.7257574526175730e-02  3.7909918063655318e-02  3.8131380390473993e-02  3.7918608018991107e-02  3.7274616327331742e-02  3.6208682722691919e-02  3.4736020653987384e-02  3.2877260041315845e-02  3.0657774412944035e-02  2.8106905931576699e-02  2.5257145528960565e-02  2.2143326005451693e-02  1.8801881170775910e-02  1.5270214413060595e-02  1.1586206469780267e-02  7.7878759978337788e-03  3.9131894046782363e-03  0.0000000000000000e+00  0.0000000000000000e+00  3.6913137437441178e-03  7.3478622732761102e-03  1.0933904162275684e-02  1.4413579315855221e-02  1.7750963396060481e-02  2.0910241927551910e-02  2.3856023880432599e-02  2.6553799264714181e-02  2.8970529138740847e-02  3.1075341046168263e-02  3.2840289797833731e-02  3.4241134028151078e-02  3.5258074050187840e-02  3.5876396731883135e-02  3.6086978441906600e-02  3.5886607089717117e-02  3.5278097976967029e-02  3.4270194288162546e-02  3.2877260041315831e-02  3.1118789571193087e-02  2.9018771578367381e-02  2.6604956121465326e-02  2.3908078687703338e-02  2.0961096127629184e-02  1.7798484762763991e-02  1.4455641847502103e-02  1.0968418716389337e-02  7.3727986573545335e-03  3.7047163311635998e-03  0.0000000000000000e+00  0.0000000000000000e+00  3.4405206455684692e-03  6.8488141577892894e-03  1.0191556241870701e-02  1.3435312010299424e-02  1.6546586645103514e-02  1.9491987142286799e-02  2.2238513767103597e-02  2.4753985647062514e-02  2.7007589877846145e-02  2.8970529138740840e-02  3.0616730560514949e-02  3.1923569698349655e-02  3.2872558842529841e-02  3.3449949039753034e-02  3.3647200123073984e-02  3.3461282316084300e-02  3.2894785719274781e-02  3.1955828995196688e-02  3.0657774412944011e-02  2.9018771578367387e-02  2.7061165217676632e-02  2.4810812061042044e-02  2.2296357282317370e-02  1.9548521603027134e-02  1.6599446040952166e-02  1.3482132819217002e-02  1.0230009012180128e-02  6.8766252796601465e-03  3.4554869278458343e-03  0.0000000000000000e+00  0.0000000000000000e+00  3.1527905255360265e-03  6.2762234257622137e-03  9.3397453921303317e-03  1.2312702795720566e-02  1.5164388198106924e-02  1.7864188021597307e-02  2.0381848709415871e-02  2.2687865693454042e-02  2.4753985647062524e-02  2.6553799264714191e-02  2.8063390524466929e-02  2.9262000191069459e-02  3.0132657038148995e-02  3.0662730355608719e-02  3.0844361786880617e-02  3.0674743006151309e-02  3.0156217404881357e-02  2.9296197703931312e-02  2.8106905931576699e-02  2.6604956121465344e-02  2.4810812061042051e-02  2.2748161323789741e-02  2.0443251814122002e-02  1.7924237692701205e-02  1.5220577811059266e-02  1.2362522074401472e-02  9.3807102607579226e-03  6.3058948411074929e-03  3.1687855342915528e-03  0.0000000000000000e+00  0.0000000000000000e+00  2.8318054588483753e-03  5.6374177839485489e-03  8.3893718744649931e-03  1.1060115095513731e-02  1.3622049251940304e-02  1.6047662527169035e-02  1.8309767390147016e-02  2.0381848709415853e-02  2.2238513767103597e-02  2.3856023880432595e-02  2.5212877131072533e-02  2.6290404287985125e-02  2.7073336125405790e-02  2.7550300382544454e-02  2.7714210605687292e-02  2.7562516694777224e-02  2.7097297434356831e-02  2.6325187630970213e-02  2.5257145528960589e-02  2.3908078687703369e-02  2.2296357282317356e-02  2.0443251814122002e-02  1.8372336735680415e-02  1.6108902103588847e-02  1.3679412052284727e-02  1.1111042004282635e-02  8.4313168152074704e-03  5.6678604813023368e-03  2.8482557413072873e-03  0.0000000000000000e+00  0.0000000000000000e+00  2.4815023456042093e-03  4.9402325482512137e-03  7.3520915789367682e-03  9.6929088301754389e-03  1.1938479000318816e-02  1.4064676547667179e-02  1.6047662527169028e-02  1.7864188021597286e-02  1.9491987142286799e-02  2.0910241927551899e-02  2.2100092446599769e-02  2.3045158878193764e-02  2.3732038902541070e-02  2.4150743761857295e-02  2.4295039825356038e-02  2.4162669121866702e-02  2.3755431456774990e-02  2.3079121541770463e-02  2.2143326005451713e-02  2.0961096127629187e-02  1.9548521603027110e-02  1.7924237692701198e-02  1.6108902103588847e-02  1.4124678492494614e-02  1.1994760606995378e-02  9.7429650861450123e-03  7.3934125000374084e-03  4.9703062082821596e-03  2.4978080829383196e-03  0.0000000000000000e+00  0.0000000000000000e+00  2.1059927398750012e-03  4.1928501978585851e-03  6.2400758908275830e-03  8.2271222438807835e-03  1.0133421192822947e-02  1.1938479000318834e-02  1.3622049251940306e-02  1.5164388198106924e-02  1.6546586645103528e-02  1.7750963396060485e-02  1.8761497539499367e-02  1.9564271325036617e-02  2.0147892451645309e-02  2.0503864602615943e-02  2.0626878006172737e-02  2.0514997416046232e-02  2.0169732667975969e-02  1.9595986141794339e-02  1.8801881170775921e-02  1.7798484762763994e-02  1.6599446040952166e-02  1.5220577811059271e-02  1.3679412052284741e-02  1.1994760606995390e-02  1.0186309897225448e-02  8.2742734180210557e-03  6.2791186353242092e-03  4.2213765942150649e-03  2.1215340322956679e-03  0.0000000000000000e+00  0.0000000000000000e+00  1.7094968514583795e-03  3.4036671937688221e-03  5.0658108764155300e-03  6.6792044168458697e-03  8.2271222438807922e-03  9.6929088301754510e-03  1.1060115095513731e-02  1.2312702795720566e-02  1.3435312010299433e-02  1.4413579315855223e-02  1.5234488036715182e-02  1.5886727510255685e-02  1.6361035973439991e-02  1.6650501698638739e-02  1.6750799399593060e-02  1.6660343483754374e-02  1.6380346024491871e-02  1.5914774772586526e-02  1.5270214413060573e-02  1.4455641847502101e-02  1.3482132819216997e-02  1.2362522074401468e-02  1.1111042004282