<?xml version="1.0"?>
<VTKFile type="UnstructuredGrid"  version="0.1"  >
<UnstructuredGrid>
<Piece  NumberOfPoints="961" NumberOfCells="1800">
<Points>
<DataArray  type="Float64"  NumberOfComponents="3"  format="ascii">-2 -2 0  -1.866666666666667 -2 0  -1.733333333333333 -2 0  -1.6 -2 0  -1.466666666666667 -2 0  -1.333333333333333 -2 0  -1.2 -2 0  -1.066666666666667 -2 0  -0.9333333333333333 -2 0  -0.8 -2 0  -0.6666666666666667 -2 0  -0.5333333333333334 -2 0  -0.3999999999999999 -2 0  -0.2666666666666666 -2 0  -0.1333333333333333 -2 0  0 -2 0  0.1333333333333333 -2 0  0.2666666666666666 -2 0  0.3999999999999999 -2 0  0.5333333333333332 -2 0  0.6666666666666665 -2 0  0.7999999999999998 -2 0  0.9333333333333331 -2 0  1.066666666666667 -2 0  1.2 -2 0  1.333333333333333 -2 0  1.466666666666667 -2 0  1.6 -2 0  1.733333333333333 -2 0  1.866666666666667 -2 0  2 -2 0  -2 -1.866666666666667 0  -1.866666666666667 -1.866666666666667 0  -1.733333333333333 -1.866666666666667 0  -1.6 -1.866666666666667 0  -1.466666666666667 -1.866666666666667 0  -1.333333333333333 -1.866666666666667 0  -1.2 -1.866666666666667 0  -1.066666666666667 -1.866666666666667 0  -0.9333333333333333 -1.866666666666667 0  -0.8 -1.866666666666667 0  -0.6666666666666667 -1.866666666666667 0  -0.5333333333333334 -1.866666666666667 0  -0.3999999999999999 -1.866666666666667 0  -0.2666666666666666 -1.866666666666667 0  -0.1333333333333333 -1.866666666666667 0  0 -1.866666666666667 0  0.1333333333333333 -1.866666666666667 0  0.2666666666666666 -1.866666666666667 0  0.3999999999999999 -1.866666666666667 0  0.5333333333333332 -1.866666666666667 0  0.6666666666666665 -1.866666666666667 0  0.7999999999999998 -1.866666666666667 0  0.9333333333333331 -1.866666666666667 0  1.066666666666667 -1.866666666666667 0  1.2 -1.866666666666667 0  1.333333333333333 -1.866666666666667 0  1.466666666666667 -1.866666666666667 0  1.6 -1.866666666666667 0  1.733333333333333 -1.866666666666667 0  1.866666666666667 -1.866666666666667 0  2 -1.866666666666667 0  -2 -1.733333333333333 0  -1.866666666666667 -1.733333333333333 0  -1.733333333333333 -1.733333333333333 0  -1.6 -1.733333333333333 0  -1.466666666666667 -1.733333333333333 0  -1.333333333333333 -1.733333333333333 0  -1.2 -1.733333333333333 0  -1.066666666666667 -1.733333333333333 0  -0.9333333333333333 -1.733333333333333 0  -0.8 -1.733333333333333 0  -0.6666666666666667 -1.733333333333333 0  -0.5333333333333334 -1.733333333333333 0  -0.3999999999999999 -1.733333333333333 0  -0.2666666666666666 -1.733333333333333 0  -0.1333333333333333 -1.733333333333333 0  0 -1.733333333333333 0  0.1333333333333333 -1.733333333333333 0  0.2666666666666666 -1.733333333333333 0  0.3999999999999999 -1.733333333333333 0  0.5333333333333332 -1.733333333333333 0  0.6666666666666665 -1.733333333333333 0  0.7999999999999998 -1.733333333333333 0  0.9333333333333331 -1.733333333333333 0  1.066666666666667 -1.733333333333333 0  1.2 -1.733333333333333 0  1.333333333333333 -1.733333333333333 0  1.466666666666667 -1.733333333333333 0  1.6 -1.733333333333333 0  1.733333333333333 -1.733333333333333 0  1.866666666666667 -1.733333333333333 0  2 -1.733333333333333 0  -2 -1.6 0  -1.866666666666667 -1.6 0  -1.733333333333333 -1.6 0  -1.6 -1.6 0  -1.466666666666667 -1.6 0  -1.333333333333333 -1.6 0  -1.2 -1.6 0  -1.066666666666667 -1.6 0  -0.9333333333333333 -1.6 0  -0.8 -1.6 0  -0.6666666666666667 -1.6 0  -0.5333333333333334 -1.6 0  -0.3999999999999999 -1.6 0  -0.2666666666666666 -1.6 0  -0.1333333333333333 -1.6 0  0 -1.6 0  0.1333333333333333 -1.6 0  0.2666666666666666 -1.6 0  0.3999999999999999 -1.6 0  0.5333333333333332 -1.6 0  0.6666666666666665 -1.6 0  0.7999999999999998 -1.6 0  0.9333333333333331 -1.6 0  1.066666666666667 -1.6 0  1.2 -1.6 0  1.333333333333333 -1.6 0  1.466666666666667 -1.6 0  1.6 -1.6 0  1.733333333333333 -1.6 0  1.866666666666667 -1.6 0  2 -1.6 0  -2 -1.466666666666667 0  -1.866666666666667 -1.466666666666667 0  -1.733333333333333 -1.466666666666667 0  -1.6 -1.466666666666667 0  -1.466666666666667 -1.466666666666667 0  -1.333333333333333 -1.466666666666667 0  -1.2 -1.466666666666667 0  -1.066666666666667 -1.466666666666667 0  -0.9333333333333333 -1.466666666666667 0  -0.8 -1.466666666666667 0  -0.6666666666666667 -1.466666666666667 0  -0.5333333333333334 -1.466666666666667 0  -0.3999999999999999 -1.466666666666667 0  -0.2666666666666666 -1.466666666666667 0  -0.1333333333333333 -1.466666666666667 0  0 -1.466666666666667 0  0.1333333333333333 -1.466666666666667 0  0.2666666666666666 -1.466666666666667 0  0.3999999999999999 -1.466666666666667 0  0.5333333333333332 -1.466666666666667 0  0.6666666666666665 -1.466666666666667 0  0.7999999999999998 -1.466666666666667 0  0.9333333333333331 -1.466666666666667 0  1.066666666666667 -1.466666666666667 0  1.2 -1.466666666666667 0  1.333333333333333 -1.466666666666667 0  1.466666666666667 -1.466666666666667 0  1.6 -1.466666666666667 0  1.733333333333333 -1.466666666666667 0  1.866666666666667 -1.466666666666667 0  2 -1.466666666666667 0  -2 -1.333333333333333 0  -1.866666666666667 -1.333333333333333 0  -1.733333333333333 -1.333333333333333 0  -1.6 -1.333333333333333 0  -1.466666666666667 -1.333333333333333 0  -1.333333333333333 -1.333333333333333 0  -1.2 -1.333333333333333 0  -1.066666666666667 -1.333333333333333 0  -0.9333333333333333 -1.333333333333333 0  -0.8 -1.333333333333333 0  -0.6666666666666667 -1.333333333333333 0  -0.5333333333333334 -1.333333333333333 0  -0.3999999999999999 -1.333333333333333 0  -0.2666666666666666 -1.333333333333333 0  -0.1333333333333333 -1.333333333333333 0  0 -1.333333333333333 0  0.1333333333333333 -1.333333333333333 0  0.2666666666666666 -1.333333333333333 0  0.3999999999999999 -1.333333333333333 0  0.5333333333333332 -1.333333333333333 0  0.6666666666666665 -1.333333333333333 0  0.7999999999999998 -1.333333333333333 0  0.9333333333333331 -1.333333333333333 0  1.066666666666667 -1.333333333333333 0  1.2 -1.333333333333333 0  1.333333333333333 -1.333333333333333 0  1.466666666666667 -1.333333333333333 0  1.6 -1.333333333333333 0  1.733333333333333 -1.333333333333333 0  1.866666666666667 -1.333333333333333 0  2 -1.333333333333333 0  -2 -1.2 0  -1.866666666666667 -1.2 0  -1.733333333333333 -1.2 0  -1.6 -1.2 0  -1.466666666666667 -1.2 0  -1.333333333333333 -1.2 0  -1.2 -1.2 0  -1.066666666666667 -1.2 0  -0.9333333333333333 -1.2 0  -0.8 -1.2 0  -0.6666666666666667 -1.2 0  -0.5333333333333334 -1.2 0  -0.3999999999999999 -1.2 0  -0.2666666666666666 -1.2 0  -0.1333333333333333 -1.2 0  0 -1.2 0  0.1333333333333333 -1.2 0  0.2666666666666666 -1.2 0  0.3999999999999999 -1.2 0  0.5333333333333332 -1.2 0  0.6666666666666665 -1.2 0  0.7999999999999998 -1.2 0  0.9333333333333331 -1.2 0  1.066666666666667 -1.2 0  1.2 -1.2 0  1.333333333333333 -1.2 0  1.466666666666667 -1.2 0  1.6 -1.2 0  1.733333333333333 -1.2 0  1.866666666666667 -1.2 0  2 -1.2 0  -2 -1.066666666666667 0  -1.866666666666667 -1.066666666666667 0  -1.733333333333333 -1.066666666666667 0  -1.6 -1.066666666666667 0  -1.466666666666667 -1.066666666666667 0  -1.333333333333333 -1.066666666666667 0  -1.2 -1.066666666666667 0  -1.066666666666667 -1.066666666666667 0  -0.9333333333333333 -1.066666666666667 0  -0.8 -1.066666666666667 0  -0.6666666666666667 -1.066666666666667 0  -0.5333333333333334 -1.066666666666667 0  -0.3999999999999999 -1.066666666666667 0  -0.2666666666666666 -1.066666666666667 0  -0.1333333333333333 -1.066666666666667 0  0 -1.066666666666667 0  0.1333333333333333 -1.066666666666667 0  0.2666666666666666 -1.066666666666667 0  0.3999999999999999 -1.066666666666667 0  0.5333333333333332 -1.066666666666667 0  0.6666666666666665 -1.066666666666667 0  0.7999999999999998 -1.066666666666667 0  0.9333333333333331 -1.066666666666667 0  1.066666666666667 -1.066666666666667 0  1.2 -1.066666666666667 0  1.333333333333333 -1.066666666666667 0  1.466666666666667 -1.066666666666667 0  1.6 -1.066666666666667 0  1.733333333333333 -1.066666666666667 0  1.866666666666667 -1.066666666666667 0  2 -1.066666666666667 0  -2 -0.9333333333333333 0  -1.866666666666667 -0.9333333333333333 0  -1.733333333333333 -0.9333333333333333 0  -1.6 -0.9333333333333333 0  -1.466666666666667 -0.9333333333333333 0  -1.333333333333333 -0.9333333333333333 0  -1.2 -0.9333333333333333 0  -1.066666666666667 -0.9333333333333333 0  -0.9333333333333333 -0.9333333333333333 0  -0.8 -0.9333333333333333 0  -0.6666666666666667 -0.9333333333333333 0  -0.5333333333333334 -0.9333333333333333 0  -0.3999999999999999 -0.9333333333333333 0  -0.2666666666666666 -0.9333333333333333 0  -0.1333333333333333 -0.9333333333333333 0  0 -0.9333333333333333 0  0.1333333333333333 -0.9333333333333333 0  0.2666666666666666 -0.9333333333333333 0  0.3999999999999999 -0.9333333333333333 0  0.5333333333333332 -0.9333333333333333 0  0.6666666666666665 -0.9333333333333333 0  0.7999999999999998 -0.9333333333333333 0  0.9333333333333331 -0.9333333333333333 0  1.066666666666667 -0.9333333333333333 0  1.2 -0.9333333333333333 0  1.333333333333333 -0.9333333333333333 0  1.466666666666667 -0.9333333333333333 0  1.6 -0.9333333333333333 0  1.733333333333333 -0.9333333333333333 0  1.866666666666667 -0.9333333333333333 0  2 -0.9333333333333333 0  -2 -0.8 0  -1.866666666666667 -0.8 0  -1.733333333333333 -0.8 0  -1.6 -0.8 0  -1.466666666666667 -0.8 0  -1.333333333333333 -0.8 0  -1.2 -0.8 0  -1.066666666666667 -0.8 0  -0.9333333333333333 -0.8 0  -0.8 -0.8 0  -0.6666666666666667 -0.8 0  -0.5333333333333334 -0.8 0  -0.3999999999999999 -0.8 0  -0.2666666666666666 -0.8 0  -0.1333333333333333 -0.8 0  0 -0.8 0  0.1333333333333333 -0.8 0  0.2666666666666666 -0.8 0  0.3999999999999999 -0.8 0  0.5333333333333332 -0.8 0  0.6666666666666665 -0.8 0  0.7999999999999998 -0.8 0  0.9333333333333331 -0.8 0  1.066666666666667 -0.8 0  1.2 -0.8 0  1.333333333333333 -0.8 0  1.466666666666667 -0.8 0  1.6 -0.8 0  1.733333333333333 -0.8 0  1.866666666666667 -0.8 0  2 -0.8 0  -2 -0.6666666666666667 0  -1.866666666666667 -0.
[...]
<PointData  Scalars="f_3403"> 
<DataArray  type="Float64"  Name="f_3403"  format="ascii">0.0000000000000000e+00  0.0000000000000000e+00  0.0000000000000000e+00  0.0000000000000000e+00  0.0000000000000000e+00  0.0000000000000000e+00  0.0000000000000000e+00  0.0000000000000000e+00  0.0000000000000000e+00  0.0000000000000000e+00  0.0000000000000000e+00  0.0000000000000000e+00  0.0000000000000000e+00  0.0000000000000000e+00  0.0000000000000000e+00  0.0000000000000000e+00  0.0000000000000000e+00  0.0000000000000000e+00  0.0000000000000000e+00  0.0000000000000000e+00  0.0000000000000000e+00  0.0000000000000000e+00  0.0000000000000000e+00  0.0000000000000000e+00  0.0000000000000000e+00  0.0000000000000000e+00  0.0000000000000000e+00  0.0000000000000000e+00  0.0000000000000000e+00  0.0000000000000000e+00  0.0000000000000000e+00  0.0000000000000000e+00  3.9331666140219722e-04  7.8195822151156768e-04  1.1621980576532859e-03  1.5302036836421669e-03  1.8821421619424510e-03  2.2142396246491555e-03  2.5228313430212235e-03  2.8044133102892075e-03  3.0556980735764114e-03  3.2736742708356892e-03  3.4556677127932380e-03  3.5994009818475108e-03  3.7030481366835582e-03  3.7652811287178026e-03  3.7853049076741747e-03  3.7628788657663552e-03  3.6983231723780939e-03  3.5925095956841797e-03  3.4468374949661071e-03  3.2631966956301536e-03  3.0439198337993767e-03  2.7917274020507147e-03  2.5096690931035127e-03  2.2010651132264611e-03  1.8694509670887825e-03  1.5185289450078139e-03  1.1521295477474199e-03  7.7418742451206392e-04  3.8874249092263704e-04  0.0000000000000000e+00  0.0000000000000000e+00  7.8195822151156725e-04  1.5550246365399463e-03  2.3115227109030529e-03  3.0437447938424650e-03  3.7440356041302525e-03  4.4048749183557504e-03  5.0189659799478592e-03  5.5793341618908731e-03  6.0794364534882918e-03  6.5132791977485002e-03  6.8755392846883154e-03  7.1616825940188696e-03  7.3680728249212778e-03  7.4920639222994852e-03  7.5320700598165450e-03  7.4876084807847946e-03  7.3593122938971738e-03  7.1489123990222808e-03  6.8591898820266574e-03  6.4939022642177911e-03  6.0576887328710263e-03  5.5559607591537481e-03  4.9947852244703259e-03  4.3807672887657863e-03  3.7209397906715824e-03  3.0226651198234250e-03  2.2935545322308832e-03  1.5414092242939676e-03  7.7418742451206392e-04  0.0000000000000000e+00  0.0000000000000000e+00  1.1621980576532864e-03  2.3115227109030542e-03  3.4363901795106521e-03  4.5252588621395567e-03  5.5667071462654240e-03  6.5495334212163185e-03  7.4628770640809104e-03  8.2963603187711753e-03  9.0402487743209536e-03  9.6856252690405240e-03  1.0224569516214853e-02  1.0650333969095064e-02  1.0957505600754782e-02  1.1142143435213334e-02  1.1201882803954538e-02  1.1135999303033170e-02  1.0945428098613064e-02  1.0632737319820465e-02  1.0202057496015989e-02  9.6589720396373594e-03  9.0103763635618339e-03  8.2643151187518742e-03  7.4298080804651940e-03  6.5166753253430203e-03  5.5353715509286515e-03  4.4968378092863342e-03  3.4123767254458518e-03  2.2935545322308832e-03  1.1521295477474195e-03  0.0000000000000000e+00  0.0000000000000000e+00  1.5302036836421680e-03  3.0437447938424663e-03  4.5252588621395567e-03  5.9594790074325842e-03  7.3313238148614715e-03  8.6260173822925966e-03  9.8292413902823436e-03  1.0927317760851294e-02  1.1907417630791948e-02  1.2757789050598463e-02  1.3467992837266095e-02  1.4029133865902004e-02  1.4434074076589554e-02  1.4677613732135632e-02  1.4756628981147751e-02  1.4670156424066012e-02  1.4419418902288917e-02  1.4007790802670192e-02  1.3440705409422757e-02  1.2725510845849509e-02  1.1871284556104516e-02  1.0888618769331495e-02  9.7893907424143820e-03  8.5865316813780422e-03  7.2938071005249376e-03  5.9256191015163223e-03  4.4968378092863333e-03  3.0226651198234237e-03  1.5185289450078132e-03  0.0000000000000000e+00  0.0000000000000000e+00  1.8821421619424541e-03  3.7440356041302573e-03  5.5667071462654257e-03  7.3313238148614689e-03  9.0192972993383361e-03  1.0612426398356358e-02  1.2093079730077408e-02  1.3444417350255238e-02  1.4650645802027787e-02  1.5697296968743786e-02  1.6571517499535598e-02  1.7262353014398064e-02  1.7761010104227561e-02  1.8061079486842432e-02  1.8158705560443220e-02  1.8052690851800449e-02  1.7744528190981840e-02  1.7238358454819597e-02  1.6540856938828206e-02  1.5661056353378555e-02  1.4610118633985677e-02  1.3401070819475239e-02  1.2048521906839603e-02  1.0568377693275628e-02  8.9775691629479879e-03  7.2938071005249289e-03  5.5353715509286455e-03  3.7209397906715798e-03  1.8694509670887820e-03  0.0000000000000000e+00  0.0000000000000000e+00  2.2142396246491581e-03  4.4048749183557539e-03  6.5495334212163246e-03  8.6260173822926001e-03  1.0612426398356365e-02  1.2487322881271166e-02  1.4229944592470204e-02  1.5820463306444654e-02  1.7240283330347890e-02  1.8472368530561563e-02  1.9501582228183940e-02  2.0315021307195830e-02  2.0902324484679703e-02  2.1255935103954064e-02  2.1371301024796421e-02  2.1246998014138669e-02  2.0884768138843924e-02  2.0289470557087408e-02  1.9468948245720531e-02  1.8433820012805569e-02  1.7197212084192007e-02  1.5774447161998065e-02  1.4182710800825199e-02  1.2440715062607854e-02  1.0568377693275635e-02  8.5865316813780405e-03  6.5166753253430151e-03  4.3807672887657854e-03  2.2010651132264606e-03  0.0000000000000000e+00  0.0000000000000000e+00  2.5228313430212270e-03  5.0189659799478635e-03  7.4628770640809130e-03  9.8292413902823471e-03  1.2093079730077410e-02  1.4229944592470210e-02  1.6216161067497681e-02  1.8029120198190838e-02  1.9647617983609211e-02  2.1052227175703084e-02  2.2225684068731173e-02  2.3153269005339122e-02  2.3823157716785736e-02  2.4226721072204613e-02  2.4358753324578215e-02  2.4217613296920515e-02  2.3805268756494743e-02  2.3127240940384982e-02  2.2192453195255389e-02  2.1012994322277948e-02  1.9603812855352822e-02  1.7982362623179718e-02  1.6168222176040890e-02  1.4182710800825189e-02  1.2048521906839606e-02  9.7893907424143733e-03  7.4298080804651844e-03  4.9947852244703198e-03  2.5096690931035092e-03  0.0000000000000000e+00  0.0000000000000000e+00  2.8044133102892101e-03  5.5793341618908783e-03  8.2963603187711909e-03  1.0927317760851301e-02  1.3444417350255243e-02  1.5820463306444654e-02  1.8029120198190828e-02  2.0045238179671073e-02  2.1845229027298074e-02  2.3407478832108784e-02  2.4712777617286994e-02  2.5744742244595279e-02  2.6490207158368570e-02  2.6939558002880434e-02  2.7086985925861867e-02  2.6930645210965692e-02  2.6472703326755918e-02  2.5719279942505405e-02  2.4680279244755490e-02  2.3369127264408877e-02  2.1802432202572851e-02  1.9999590341357246e-02  1.7982362623179697e-02  1.5774447161998044e-02  1.3401070819475237e-02  1.0888618769331481e-02  8.2643151187518551e-03  5.5559607591537359e-03  2.7917274020507082e-03  0.0000000000000000e+00  0.0000000000000000e+00  3.0556980735764140e-03  6.0794364534883022e-03  9.0402487743209709e-03  1.1907417630791966e-02  1.4650645802027802e-02  1.7240283330347897e-02  1.9647617983609221e-02  2.1845229027298081e-02  2.3807396373454911e-02  2.5510549815226664e-02  2.6933736920316101e-02  2.8059083860440093e-02  2.8872221443782563e-02  2.9362649122089555e-02  2.9524012749026472e-02  2.9354277113725850e-02  2.8855781286026352e-02  2.8035172937867295e-02  2.6903226289422610e-02  2.5474556374413711e-02  2.3767249174614813e-02  2.1802432202572872e-02  1.9603812855352815e-02  1.7197212084191990e-02  1.4610118633985663e-02  1.1871284556104506e-02  9.0103763635618218e-03  6.0576887328710168e-03  3.0439198337993720e-03  0.0000000000000000e+00  0.0000000000000000e+00  3.2736742708356931e-03  6.5132791977485106e-03  9.6856252690405327e-03  1.2757789050598479e-02  1.5697296968743807e-02  1.8472368530561577e-02  2.1052227175703091e-02  2.3407478832108773e-02  2.5510549815226647e-02  2.7336167796679165e-02  2.8861862959656460e-02  3.0068461820924843e-02  3.0940544013979401e-02  3.1466832840573507e-02  3.1640493593893905e-02  3.1459319260537140e-02  3.0925790709952806e-02  3.0047007183577563e-02  2.8834491988305518e-02  2.7303886928842797e-02  2.5474556374413721e-02  2.3369127264408901e-02  2.1012994322277968e-02  1.8433820012805573e-02  1.5661056353378562e-02  1.2725510845849506e-02  9.6589720396373507e-03  6.4939022642177876e-03  3.2631966956301510e-03  0.0000000000000000e+00  0.0000000000000000e+00  3.4556677127932428e-03  6.8755392846883276e-03  1.0224569516214860e-02  1.3467992837266103e-02  1.6571517499535605e-02  1.9501582228183937e-02  2.2225684068731176e-02  2.4712777617286998e-02  2.6933736920316094e-02  2.8861862959656450e-02  3.0473412636494019e-02  3.1748120243067460e-02  3.2669680073867620e-02  3.3226159341056778e-02  3.3410313908095970e-02  3.3219785251950552e-02  3.2657164970464787e-02  3.1729922334183890e-02  3.0450199982983050e-02  2.8834491988305493e-02  2.6903226289422648e-02  2.4680279244755535e-02  2.2192453195255413e-02  1.9468948245720551e-02  1.6540856938828230e-02  1.3440705409422759e-02  1.0202057496015984e-02  6.8591898820266582e-03  3.4468374949661075e-03  0.0000000000000000e+00  0.0000000000000000e+00  3.5994009818475139e-03  7.1616825940188792e-03  1.0650333969095063e-02  1.4029133865902012e-02  1.7262353014398078e-02  2.0315021307195841e-02  2.3153269005339126e-02  2.5744742244595296e-02  2.8059083860440117e-02  3.0068461820924847e-02  3.1748120243067453e-02  3.3076922812519692e-02  3.4037855963573609e-02  3.4618459682940902e-02  3.4811157264428003e-02  3.4613461463534612e-02  3.4028042723151790e-02  3.3062654701131823e-02  3.1729922334183910e-02  3.0047007183577591e-02  2.8035172937867343e-02  2.5719279942505467e-02  2.3127240940385013e-02  2.0289470557087436e-02  1.7238358454819618e-02  1.4007790802670199e-02  1.0632737319820474e-02  7.1489123990222869e-03  3.5925095956841815e-03  0.0000000000000000e+00  0.0000000000000000e+00  3.7030481366835608e-03  7.3680728249212821e-03  1.0957505600754779e-02  1.4434074076589554e-02  1.7761010104227582e-02  2.0902324484679716e-02  2.3823157716785739e-02  2.6490207158368612e-02  2.8872221443782573e-02  3.0940544013979419e-02  3.2669680073867648e-02  3.4037855963573622e-02  3.5027537369432191e-02  3.5625873294018499e-02  3.5825036243003101e-02  3.5622435364762353e-02  3.5020787724355185e-02  3.4028042723151755e-02  3.2657164970464753e-02  3.0925790709952824e-02  2.8855781286026387e-02  2.6472703326755994e-02  2.3805268756494795e-02  2.0884768138843934e-02  1.7744528190981858e-02  1.4419418902288915e-02  1.0945428098613069e-02  7.3593122938971746e-03  3.6983231723780948e-03  0.0000000000000000e+00  0.0000000000000000e+00  3.7652811287178043e-03  7.4920639222994852e-03  1.1142143435213317e-02  1.4677613732135629e-02  1.8061079486842435e-02  2.1255935103954075e-02  2.4226721072204627e-02  2.6939558002880448e-02  2.9362649122089593e-02  3.1466832840573528e-02  3.3226159341056792e-02  3.4618459682940896e-02  3.5625873294018499e-02  3.6235300193598503e-02  3.6438747864486205e-02  3.6233549054788365e-02  3.5622435364762339e-02  3.4613461463534570e-02  3.3219785251950504e-02  3.1459319260537126e-02  2.9354277113725860e-02  2.6930645210965738e-02  2.4217613296920522e-02  2.1246998014138666e-02  1.8052690851800449e-02  1.4670156424066010e-02  1.1135999303033170e-02  7.4876084807847911e-03  3.7628788657663526e-03  0.0000000000000000e+00  0.0000000000000000e+00  3.7853049076741739e-03  7.5320700598165398e-03  1.1201882803954528e-02  1.4756628981147749e-02  1.8158705560443220e-02  2.1371301024796424e-02  2.4358753324578222e-02  2.7086985925861892e-02  2.9524012749026520e-02  3.1640493593893954e-02  3.3410313908095984e-02  3.4811157264428023e-02  3.5825036243003115e-02  3.6438747864486198e-02  3.6644223287991821e-02  3.6438747864486226e-02  3.5825036243003087e-02  3.4811157264427940e-02  3.3410313908095929e-02  3.1640493593893905e-02  2.9524012749026468e-02  2.7086985925861888e-02  2.4358753324578205e-02  2.1371301024796386e-02  1.8158705560443217e-02  1.4756628981147749e-02  1.1201882803954526e-02  7.5320700598165381e-03  3.7853049076741721e-03  0.0000000000000000e+00  0.0000000000000000e+00  3.7628788657663517e-03  7.4876084807847885e-03  1.1135999303033153e-02  1.4670156424065998e-02  1.8052690851800442e-02  2.1246998014138669e-02  2.4217613296920518e-02  2.6930645210965692e-02  2.9354277113725860e-02  3.1459319260537154e-02  3.3219785251950545e-02  3.4613461463534632e-02  3.5622435364762381e-02  3.6233549054788351e-02  3.6438747864486191e-02  3.6235300193598483e-02  3.5625873294018451e-02  3.4618459682940826e-02  3.3226159341056771e-02  3.1466832840573493e-02  2.9362649122089555e-02  2.6939558002880431e-02  2.4226721072204593e-02  2.1255935103954026e-02  1.8061079486842407e-02  1.4677613732135615e-02  1.1142143435213320e-02  7.4920639222994774e-03  3.7652811287178026e-03  0.0000000000000000e+00  0.0000000000000000e+00  3.6983231723780913e-03  7.3593122938971668e-03  1.0945428098613052e-02  1.4419418902288894e-02  1.7744528190981837e-02  2.0884768138843924e-02  2.3805268756494757e-02  2.6472703326755928e-02  2.8855781286026356e-02  3.0925790709952845e-02  3.2657164970464801e-02  3.4028042723151804e-02  3.5020787724355198e-02  3.5622435364762325e-02  3.5825036243003081e-02  3.5625873294018499e-02  3.5027537369432142e-02  3.4037855963573546e-02  3.2669680073867578e-02  3.0940544013979353e-02  2.8872221443782545e-02  2.6490207158368567e-02  2.3823157716785698e-02  2.0902324484679650e-02  1.7761010104227537e-02  1.4434074076589525e-02  1.0957505600754760e-02  7.3680728249212700e-03  3.7030481366835555e-03  0.0000000000000000e+00  0.0000000000000000e+00  3.5925095956841767e-03  7.1489123990222756e-03  1.0632737319820462e-02  1.4007790802670178e-02  1.7238358454819587e-02  2.0289470557087408e-02  2.3127240940384961e-02  2.5719279942505415e-02  2.8035172937867309e-02  3.0047007183577567e-02  3.1729922334183903e-02  3.3062654701131837e-02  3.4028042723151797e-02  3.4613461463534584e-02  3.4811157264427954e-02  3.4618459682940854e-02  3.4037855963573546e-02  3.3076922812519630e-02  3.1748120243067404e-02  3.0068461820924777e-02  2.8059083860440075e-02  2.5744742244595262e-02  2.3153269005339094e-02  2.0315021307195785e-02  1.7262353014398012e-02  1.4029133865901974e-02  1.0650333969095042e-02  7.1616825940188592e-03  3.5994009818475052e-03  0.0000000000000000e+00  0.0000000000000000e+00  3.4468374949661058e-03  6.8591898820266539e-03  1.0202057496015987e-02  1.3440705409422750e-02  1.6540856938828206e-02  1.9468948245720534e-02  2.2192453195255396e-02  2.4680279244755497e-02  2.6903226289422617e-02  2.8834491988305472e-02  3.0450199982983060e-02  3.1729922334183917e-02  3.2657164970464815e-02  3.3219785251950518e-02  3.3410313908095936e-02  3.3226159341056757e-02  3.2669680073867585e-02  3.1748120243067376e-02  3.0473412636493953e-02  2.8861862959656426e-02  2.6933736920316073e-02  2.4712777617286987e-02  2.2225684068731162e-02  1.9501582228183892e-02  1.6571517499535549e-02  1.3467992837266064e-02  1.0224569516214838e-02  6.8755392846883015e-03  3.4556677127932324e-03  0.0000000000000000e+00  0.0000000000000000e+00  3.2631966956301519e-03  6.4939022642177841e-03  9.6589720396373542e-03  1.2725510845849504e-02  1.5661056353378566e-02  1.8433820012805573e-02  2.1012994322277954e-02  2.3369127264408870e-02  2.5474556374413686e-02  2.7303886928842787e-02  2.8834491988305486e-02  3.0047007183577591e-02  3.0925790709952862e-02  3.1459319260537126e-02  3.1640493593893905e-02  3.1466832840573493e-02  3.0940544013979367e-02  3.0068461820924770e-02  2.8861862959656412e-02  2.7336167796679144e-02  2.5510549815226644e-02  2.3407478832108780e-02  2.1052227175703118e-02  1.8472368530561549e-02  1.5697296968743769e-02  1.2757789050598453e-02  9.6856252690405171e-03  6.5132791977484941e-03  3.2736742708356858e-03  0.0000000000000000e+00  0.0000000000000000e+00  3.0439198337993741e-03  6.0576887328710168e-03  9.0103763635618252e-03  1.1871284556104512e-02  1.4610118633985670e-02  1.7197212084192004e-02  1.9603812855352804e-02  2.1802432202572823e-02  2.3767249174614778e-02  2.5474556374413732e-02  2.6903226289422620e-02  2.8035172937867330e-02  2.8855781286026387e-02  2.9354277113725843e-02  2.9524012749026444e-02  2.9362649122089558e-02  2.8872221443782549e-02  2.8059083860440051e-02  2.6933736920316063e-02  2.5510549815226657e-02  2.3807396373454935e-02  2.1845229027298109e-02  1.9647617983609238e-02  1.7240283330347883e-02  1.4650645802027793e-02  1.1907417630791957e-02  9.0402487743209605e-03  6.0794364534882918e-03  3.0556980735764122e-03  0.0000000000000000e+00  0.0000000000000000e+00  2.7917274020507121e-03  5.5559607591537420e-03  8.2643151187518620e-03  1.0888618769331488e-02  1.3401070819475237e-02  1.5774447161998058e-02  1.7982362623179711e-02  1.9999590341357235e-02  2.1802432202572830e-02  2.3369127264408880e-02  2.4680279244755507e-02  2.5719279942505439e-02  2.6472703326755977e-02  2.6930645210965713e-02  2.7086985925861885e-02  2.6939558002880438e-02  2.6490207158368546e-02  2.5744742244595248e-02  2.4712777617286980e-02  2.3407478832108791e-02  2.1845229027298123e-02  2.0045238179671142e-02  1.8029120198190880e-02  1.5820463306444675e-02  1.3444417350255256e-02  1.0927317760851308e-02  8.2963603187711874e-03  5.5793341618908783e-03  2.8044133102892114e-03  0.0000000000000000e+00  0.0000000000000000e+00  2.5096690931035114e-03  4.9947852244703224e-03  7.4298080804651853e-03  9.7893907424143785e-03  1.2048521906839596e-02  1.4182710800825187e-02  1.6168222176040897e-02  1.7982362623179690e-02  1.9603812855352794e-02  2.1012994322277951e-02  2.2192453195255410e-02  2.3127240940384979e-02  2.3805268756494767e-02  2.4217613296920511e-02  2.4358753324578219e-02  2.4226721072204610e-02  2.3823157716785705e-02  2.3153269005339070e-02  2.2225684068731162e-02  2.1052227175703098e-02  1.9647617983609231e-02  1.8029120198190869e-02  1.6216161067497716e-02  1.4229944592470230e-02  1.2093079730077425e-02  9.8292413902823610e-03  7.4628770640809182e-03  5.0189659799478670e-03  2.5228313430212287e-03  0.0000000000000000e+00  0.0000000000000000e+00  2.2010651132264593e-03  4.3807672887657828e-03  6.5166753253430108e-03  8.5865316813780335e-03  1.0568377693275623e-02  1.2440715062607849e-02  1.4182710800825189e-02  1.5774447161998040e-02  1.7197212084191990e-02  1.8433820012805566e-02  1.9468948245720527e-02  2.0289470557087404e-02  2.0884768138843914e-02  2.1246998014138648e-02  2.1371301024796386e-02  2.1255935103954026e-02  2.0902324484679647e-02  2.0315021307195782e-02  1.9501582228183902e-02  1.8472368530561546e-02  1.7240283330347880e-02  1.5820463306444672e-02  1.4229944592470224e-02  1.2487322881271187e-02  1.0612426398356379e-02  8.6260173822926087e-03  6.5495334212163237e-03  4.4048749183557556e-03  2.2142396246491603e-03  0.0000000000000000e+00  0.0000000000000000e+00  1.8694509670887805e-03  3.7209397906715794e-03  5.5353715509286481e-03  7.2938071005249341e-03  8.9775691629479862e-03  1.0568377693275633e-02  1.2048521906839601e-02  1.3401070819475232e-02  1.4610118633985670e-02  1.5661056353378559e-02  1.6540856938828209e-02  1.7238358454819584e-02  1.7744528190981827e-02  1.8052690851800446e-02  1.8158705560443206e-02  1.8061079486842380e-02  1.7761010104227502e-02  1.7262353014398015e-02  1.6571517499535560e-02  1.5697296968743769e-02  1.4650645802027788e-02  1.3444417350255261e-02  1.2093079730077425e-02  1.0612426398356375e-02  9.0192972993383465e-03  7.3313238148614785e-03  5.5667071462654301e-03  3.7440356041302620e-03  1.8821421619424552e-03  0.0000000000000000e+00  0.0000000000000000e+00  1.5185289450078128e-03  3.0226651198234237e-03  4.4968378092863333e-03  5.9256191015163179e-03  7.2938071005249350e-03  8.5865316813780405e-03  9.7893907424143767e-03  1.0888618769331485e-02  1.1871284556104507e-02  1.2725510845849504e-02  1.3440705409422752e-02  1.4007790802670179e-02  1.4419418902288884e-02  1.4670156424065991e-02  1.4756628981147725e-02  1.4677613732135594e-02  1.4434074076589509e-02  1.4029133865901964e-02  1.3467992837266071e-02  1.2757789050598456e-02  1.1907417630791957e-02  1.0927317760851310e-02  9.8292413902823