<?xml version="1.0"?>
<VTKFile type="UnstructuredGrid"  version="0.1"  >
<UnstructuredGrid>
<Piece  NumberOfPoints="961" NumberOfCells="1800">
<Points>
<DataArray  type="Float64"  NumberOfComponents="3"  format="ascii">-2 -2 0  -1.866666666666667 -2 0  -1.733333333333333 -2 0  -1.6 -2 0  -1.466666666666667 -2 0  -1.333333333333333 -2 0  -1.2 -2 0  -1.066666666666667 -2 0  -0.9333333333333333 -2 0  -0.8 -2 0  -0.6666666666666667 -2 0  -0.5333333333333334 -2 0  -0.3999999999999999 -2 0  -0.2666666666666666 -2 0  -0.1333333333333333 -2 0  0 -2 0  0.1333333333333333 -2 0  0.2666666666666666 -2 0  0.3999999999999999 -2 0  0.5333333333333332 -2 0  0.6666666666666665 -2 0  0.7999999999999998 -2 0  0.9333333333333331 -2 0  1.066666666666667 -2 0  1.2 -2 0  1.333333333333333 -2 0  1.466666666666667 -2 0  1.6 -2 0  1.733333333333333 -2 0  1.866666666666667 -2 0  2 -2 0  -2 -1.866666666666667 0  -1.866666666666667 -1.866666666666667 0  -1.733333333333333 -1.866666666666667 0  -1.6 -1.866666666666667 0  -1.466666666666667 -1.866666666666667 0  -1.333333333333333 -1.866666666666667 0  -1.2 -1.866666666666667 0  -1.066666666666667 -1.866666666666667 0  -0.9333333333333333 -1.866666666666667 0  -0.8 -1.866666666666667 0  -0.6666666666666667 -1.866666666666667 0  -0.5333333333333334 -1.866666666666667 0  -0.3999999999999999 -1.866666666666667 0  -0.2666666666666666 -1.866666666666667 0  -0.1333333333333333 -1.866666666666667 0  0 -1.866666666666667 0  0.1333333333333333 -1.866666666666667 0  0.2666666666666666 -1.866666666666667 0  0.3999999999999999 -1.866666666666667 0  0.5333333333333332 -1.866666666666667 0  0.6666666666666665 -1.866666666666667 0  0.7999999999999998 -1.866666666666667 0  0.9333333333333331 -1.866666666666667 0  1.066666666666667 -1.866666666666667 0  1.2 -1.866666666666667 0  1.333333333333333 -1.866666666666667 0  1.466666666666667 -1.866666666666667 0  1.6 -1.866666666666667 0  1.733333333333333 -1.866666666666667 0  1.866666666666667 -1.866666666666667 0  2 -1.866666666666667 0  -2 -1.733333333333333 0  -1.866666666666667 -1.733333333333333 0  -1.733333333333333 -1.733333333333333 0  -1.6 -1.733333333333333 0  -1.466666666666667 -1.733333333333333 0  -1.333333333333333 -1.733333333333333 0  -1.2 -1.733333333333333 0  -1.066666666666667 -1.733333333333333 0  -0.9333333333333333 -1.733333333333333 0  -0.8 -1.733333333333333 0  -0.6666666666666667 -1.733333333333333 0  -0.5333333333333334 -1.733333333333333 0  -0.3999999999999999 -1.733333333333333 0  -0.2666666666666666 -1.733333333333333 0  -0.1333333333333333 -1.733333333333333 0  0 -1.733333333333333 0  0.1333333333333333 -1.733333333333333 0  0.2666666666666666 -1.733333333333333 0  0.3999999999999999 -1.733333333333333 0  0.5333333333333332 -1.733333333333333 0  0.6666666666666665 -1.733333333333333 0  0.7999999999999998 -1.733333333333333 0  0.9333333333333331 -1.733333333333333 0  1.066666666666667 -1.733333333333333 0  1.2 -1.733333333333333 0  1.333333333333333 -1.733333333333333 0  1.466666666666667 -1.733333333333333 0  1.6 -1.733333333333333 0  1.733333333333333 -1.733333333333333 0  1.866666666666667 -1.733333333333333 0  2 -1.733333333333333 0  -2 -1.6 0  -1.866666666666667 -1.6 0  -1.733333333333333 -1.6 0  -1.6 -1.6 0  -1.466666666666667 -1.6 0  -1.333333333333333 -1.6 0  -1.2 -1.6 0  -1.066666666666667 -1.6 0  -0.9333333333333333 -1.6 0  -0.8 -1.6 0  -0.6666666666666667 -1.6 0  -0.5333333333333334 -1.6 0  -0.3999999999999999 -1.6 0  -0.2666666666666666 -1.6 0  -0.1333333333333333 -1.6 0  0 -1.6 0  0.1333333333333333 -1.6 0  0.2666666666666666 -1.6 0  0.3999999999999999 -1.6 0  0.5333333333333332 -1.6 0  0.6666666666666665 -1.6 0  0.7999999999999998 -1.6 0  0.9333333333333331 -1.6 0  1.066666666666667 -1.6 0  1.2 -1.6 0  1.333333333333333 -1.6 0  1.466666666666667 -1.6 0  1.6 -1.6 0  1.733333333333333 -1.6 0  1.866666666666667 -1.6 0  2 -1.6 0  -2 -1.466666666666667 0  -1.866666666666667 -1.466666666666667 0  -1.733333333333333 -1.466666666666667 0  -1.6 -1.466666666666667 0  -1.466666666666667 -1.466666666666667 0  -1.333333333333333 -1.466666666666667 0  -1.2 -1.466666666666667 0  -1.066666666666667 -1.466666666666667 0  -0.9333333333333333 -1.466666666666667 0  -0.8 -1.466666666666667 0  -0.6666666666666667 -1.466666666666667 0  -0.5333333333333334 -1.466666666666667 0  -0.3999999999999999 -1.466666666666667 0  -0.2666666666666666 -1.466666666666667 0  -0.1333333333333333 -1.466666666666667 0  0 -1.466666666666667 0  0.1333333333333333 -1.466666666666667 0  0.2666666666666666 -1.466666666666667 0  0.3999999999999999 -1.466666666666667 0  0.5333333333333332 -1.466666666666667 0  0.6666666666666665 -1.466666666666667 0  0.7999999999999998 -1.466666666666667 0  0.9333333333333331 -1.466666666666667 0  1.066666666666667 -1.466666666666667 0  1.2 -1.466666666666667 0  1.333333333333333 -1.466666666666667 0  1.466666666666667 -1.466666666666667 0  1.6 -1.466666666666667 0  1.733333333333333 -1.466666666666667 0  1.866666666666667 -1.466666666666667 0  2 -1.466666666666667 0  -2 -1.333333333333333 0  -1.866666666666667 -1.333333333333333 0  -1.733333333333333 -1.333333333333333 0  -1.6 -1.333333333333333 0  -1.466666666666667 -1.333333333333333 0  -1.333333333333333 -1.333333333333333 0  -1.2 -1.333333333333333 0  -1.066666666666667 -1.333333333333333 0  -0.9333333333333333 -1.333333333333333 0  -0.8 -1.333333333333333 0  -0.6666666666666667 -1.333333333333333 0  -0.5333333333333334 -1.333333333333333 0  -0.3999999999999999 -1.333333333333333 0  -0.2666666666666666 -1.333333333333333 0  -0.1333333333333333 -1.333333333333333 0  0 -1.333333333333333 0  0.1333333333333333 -1.333333333333333 0  0.2666666666666666 -1.333333333333333 0  0.3999999999999999 -1.333333333333333 0  0.5333333333333332 -1.333333333333333 0  0.6666666666666665 -1.333333333333333 0  0.7999999999999998 -1.333333333333333 0  0.9333333333333331 -1.333333333333333 0  1.066666666666667 -1.333333333333333 0  1.2 -1.333333333333333 0  1.333333333333333 -1.333333333333333 0  1.466666666666667 -1.333333333333333 0  1.6 -1.333333333333333 0  1.733333333333333 -1.333333333333333 0  1.866666666666667 -1.333333333333333 0  2 -1.333333333333333 0  -2 -1.2 0  -1.866666666666667 -1.2 0  -1.733333333333333 -1.2 0  -1.6 -1.2 0  -1.466666666666667 -1.2 0  -1.333333333333333 -1.2 0  -1.2 -1.2 0  -1.066666666666667 -1.2 0  -0.9333333333333333 -1.2 0  -0.8 -1.2 0  -0.6666666666666667 -1.2 0  -0.5333333333333334 -1.2 0  -0.3999999999999999 -1.2 0  -0.2666666666666666 -1.2 0  -0.1333333333333333 -1.2 0  0 -1.2 0  0.1333333333333333 -1.2 0  0.2666666666666666 -1.2 0  0.3999999999999999 -1.2 0  0.5333333333333332 -1.2 0  0.6666666666666665 -1.2 0  0.7999999999999998 -1.2 0  0.9333333333333331 -1.2 0  1.066666666666667 -1.2 0  1.2 -1.2 0  1.333333333333333 -1.2 0  1.466666666666667 -1.2 0  1.6 -1.2 0  1.733333333333333 -1.2 0  1.866666666666667 -1.2 0  2 -1.2 0  -2 -1.066666666666667 0  -1.866666666666667 -1.066666666666667 0  -1.733333333333333 -1.066666666666667 0  -1.6 -1.066666666666667 0  -1.466666666666667 -1.066666666666667 0  -1.333333333333333 -1.066666666666667 0  -1.2 -1.066666666666667 0  -1.066666666666667 -1.066666666666667 0  -0.9333333333333333 -1.066666666666667 0  -0.8 -1.066666666666667 0  -0.6666666666666667 -1.066666666666667 0  -0.5333333333333334 -1.066666666666667 0  -0.3999999999999999 -1.066666666666667 0  -0.2666666666666666 -1.066666666666667 0  -0.1333333333333333 -1.066666666666667 0  0 -1.066666666666667 0  0.1333333333333333 -1.066666666666667 0  0.2666666666666666 -1.066666666666667 0  0.3999999999999999 -1.066666666666667 0  0.5333333333333332 -1.066666666666667 0  0.6666666666666665 -1.066666666666667 0  0.7999999999999998 -1.066666666666667 0  0.9333333333333331 -1.066666666666667 0  1.066666666666667 -1.066666666666667 0  1.2 -1.066666666666667 0  1.333333333333333 -1.066666666666667 0  1.466666666666667 -1.066666666666667 0  1.6 -1.066666666666667 0  1.733333333333333 -1.066666666666667 0  1.866666666666667 -1.066666666666667 0  2 -1.066666666666667 0  -2 -0.9333333333333333 0  -1.866666666666667 -0.9333333333333333 0  -1.733333333333333 -0.9333333333333333 0  -1.6 -0.9333333333333333 0  -1.466666666666667 -0.9333333333333333 0  -1.333333333333333 -0.9333333333333333 0  -1.2 -0.9333333333333333 0  -1.066666666666667 -0.9333333333333333 0  -0.9333333333333333 -0.9333333333333333 0  -0.8 -0.9333333333333333 0  -0.6666666666666667 -0.9333333333333333 0  -0.5333333333333334 -0.9333333333333333 0  -0.3999999999999999 -0.9333333333333333 0  -0.2666666666666666 -0.9333333333333333 0  -0.1333333333333333 -0.9333333333333333 0  0 -0.9333333333333333 0  0.1333333333333333 -0.9333333333333333 0  0.2666666666666666 -0.9333333333333333 0  0.3999999999999999 -0.9333333333333333 0  0.5333333333333332 -0.9333333333333333 0  0.6666666666666665 -0.9333333333333333 0  0.7999999999999998 -0.9333333333333333 0  0.9333333333333331 -0.9333333333333333 0  1.066666666666667 -0.9333333333333333 0  1.2 -0.9333333333333333 0  1.333333333333333 -0.9333333333333333 0  1.466666666666667 -0.9333333333333333 0  1.6 -0.9333333333333333 0  1.733333333333333 -0.9333333333333333 0  1.866666666666667 -0.9333333333333333 0  2 -0.9333333333333333 0  -2 -0.8 0  -1.866666666666667 -0.8 0  -1.733333333333333 -0.8 0  -1.6 -0.8 0  -1.466666666666667 -0.8 0  -1.333333333333333 -0.8 0  -1.2 -0.8 0  -1.066666666666667 -0.8 0  -0.9333333333333333 -0.8 0  -0.8 -0.8 0  -0.6666666666666667 -0.8 0  -0.5333333333333334 -0.8 0  -0.3999999999999999 -0.8 0  -0.2666666666666666 -0.8 0  -0.1333333333333333 -0.8 0  0 -0.8 0  0.1333333333333333 -0.8 0  0.2666666666666666 -0.8 0  0.3999999999999999 -0.8 0  0.5333333333333332 -0.8 0  0.6666666666666665 -0.8 0  0.7999999999999998 -0.8 0  0.9333333333333331 -0.8 0  1.066666666666667 -0.8 0  1.2 -0.8 0  1.333333333333333 -0.8 0  1.466666666666667 -0.8 0  1.6 -0.8 0  1.733333333333333 -0.8 0  1.866666666666667 -0.8 0  2 -0.8 0  -2 -0.6666666666666667 0  -1.866666666666667 -0.
[...]
<PointData  Scalars="f_3403"> 
<DataArray  type="Float64"  Name="f_3403"  format="ascii">0.0000000000000000e+00  0.0000000000000000e+00  0.0000000000000000e+00  0.0000000000000000e+00  0.0000000000000000e+00  0.0000000000000000e+00  0.0000000000000000e+00  0.0000000000000000e+00  0.0000000000000000e+00  0.0000000000000000e+00  0.0000000000000000e+00  0.0000000000000000e+00  0.0000000000000000e+00  0.0000000000000000e+00  0.0000000000000000e+00  0.0000000000000000e+00  0.0000000000000000e+00  0.0000000000000000e+00  0.0000000000000000e+00  0.0000000000000000e+00  0.0000000000000000e+00  0.0000000000000000e+00  0.0000000000000000e+00  0.0000000000000000e+00  0.0000000000000000e+00  0.0000000000000000e+00  0.0000000000000000e+00  0.0000000000000000e+00  0.0000000000000000e+00  0.0000000000000000e+00  0.0000000000000000e+00  0.0000000000000000e+00  3.9784873203119067e-04  7.9098637467133132e-04  1.1756558675028322e-03  1.5479902642657195e-03  1.9041178964129565e-03  2.2402217558387815e-03  2.5525898993976771e-03  2.8376679475056667e-03  3.0921163984720590e-03  3.3128721209038882e-03  3.4972117130260896e-03  3.6428135110900418e-03  3.7478146272377586e-03  3.8108594168087457e-03  3.8311361688437486e-03  3.8083995262757262e-03  3.7429770992501964e-03  3.6357598427358149e-03  3.4881769225361607e-03  3.3021568837907837e-03  3.0800778627454793e-03  2.8247102642242512e-03  2.5391557110758119e-03  2.2267861455062261e-03  1.8911867715132448e-03  1.5361062199519236e-03  1.1654172751976511e-03  7.8309279921015074e-04  3.9320757162329451e-04  0.0000000000000000e+00  0.0000000000000000e+00  7.9098637467133078e-04  1.5730119885008478e-03  2.3383376712843114e-03  3.0791865210044816e-03  3.7878259246993573e-03  4.4566496929681733e-03  5.0782670431562937e-03  5.6456030471336450e-03  6.1520110496734769e-03  6.5913942873672294e-03  6.9583316094614387e-03  7.2482007154120575e-03  7.4572916316412805e-03  7.5829032261383279e-03  7.6234163552107125e-03  7.5783386579733559e-03  7.4483179184569081e-03  7.2351231190994182e-03  6.9415946037925140e-03  6.5715669382557153e-03  6.1297698997401480e-03  5.6217143817062646e-03  5.0535707510767540e-03  4.4320473055908848e-03  3.7642759935290885e-03  3.0577116329660791e-03  2.3200497979544710e-03  1.5591677716016630e-03  7.8309279921015074e-04  0.0000000000000000e+00  0.0000000000000000e+00  1.1756558675028329e-03  2.3383376712843144e-03  3.4763669143521286e-03  4.5780981695271866e-03  5.6319943271176684e-03  6.6267255951712508e-03  7.5512912488800649e-03  8.3951641187930658e-03  9.1484554047293141e-03  9.8020943402041122e-03  1.0348014547420794e-02  1.0779337035827204e-02  1.1090538901256804e-02  1.1277596950125790e-02  1.1338096677198272e-02  1.1271299145995811e-02  1.1078161154603170e-02  1.0761307347502304e-02  1.0324956346739219e-02  9.7748062029243011e-03  9.1178872084377444e-03  8.3623921221655014e-03  7.5174949533195895e-03  6.5931695621269572e-03  5.6000184819251751e-03  4.5491206727925537e-03  3.4519045609267729e-03  2.3200497979544710e-03  1.1654172751976511e-03  0.0000000000000000e+00  0.0000000000000000e+00  1.5479902642657208e-03  3.0791865210044824e-03  4.5780981695271858e-03  6.0293205913839387e-03  7.4176195082372408e-03  8.7280495846306701e-03  9.9461074339022744e-03  1.1057917671499601e-02  1.2050447574884195e-02  1.2911742358335965e-02  1.3631169888081895e-02  1.4199661377221943e-02  1.4609933520773730e-02  1.4856677798871711e-02  1.4936704281997214e-02  1.4849030072416971e-02  1.4594906250472026e-02  1.4177781512640790e-02  1.3603205184423999e-02  1.2878676543129663e-02  1.2013450996893283e-02  1.1018316304049317e-02  9.9053534447166233e-03  8.6876968554677469e-03  7.3793075143657157e-03  5.9947699346164160e-03  4.5491206727925537e-03  3.0577116329660791e-03  1.5361062199519234e-03  0.0000000000000000e+00  0.0000000000000000e+00  1.9041178964129596e-03  3.7878259246993591e-03  5.6319943271176693e-03  7.4176195082372408e-03  9.1259240987537227e-03  1.0738497562338094e-02  1.2237480007430307e-02  1.3605787947160134e-02  1.4827376324937616e-02  1.5887526679864265e-02  1.6773147478695238e-02  1.7473069902674783e-02  1.7978321099061619e-02  1.8282357262771970e-02  1.8381240900617428e-02  1.8273750079417894e-02  1.7961412054426439e-02  1.7448458987835133e-02  1.6741709000407941e-02  1.5850381033252120e-02  1.4785856441842188e-02  1.3561403488259849e-02  1.2191882644216794e-02  1.0693450713676181e-02  9.0832802293649931e-03  7.3793075143657174e-03  5.6000184819251708e-03  3.7642759935290872e-03  1.8911867715132446e-03  0.0000000000000000e+00  0.0000000000000000e+00  2.2402217558387845e-03  4.4566496929681759e-03  6.6267255951712560e-03  8.7280495846306719e-03  1.0738497562338091e-02  1.2636384471468981e-02  1.4400678091838445e-02  1.6011262549883304e-02  1.7449245030641828e-02  1.8697293758162897e-02  1.9739990731848713e-02  2.0564179480890649e-02  2.1159286601257606e-02  2.1517596262293746e-02  2.1634459208134556e-02  2.1508421835021271e-02  2.1141266330359884e-02  2.0537959110917502e-02  1.9706511310424332e-02  1.8657761229874035e-02  1.7405093899796630e-02  1.5964116725467936e-02  1.4352312242626892e-02  1.2588689120690165e-02  1.0693450713676190e-02  8.6876968554677487e-03  6.5931695621269572e-03  4.4320473055908839e-03  2.2267861455062253e-03  0.0000000000000000e+00  0.0000000000000000e+00  2.5525898993976797e-03  5.0782670431562997e-03  7.5512912488800718e-03  9.9461074339022813e-03  1.2237480007430315e-02  1.4400678091838450e-02  1.6411717774406646e-02  1.8247660980727661e-02  1.9886963801712596e-02  2.1309860772783077e-02  2.2498766308026628e-02  2.3438670780313330e-02  2.4117507012974670e-02  2.4526463417770566e-02  2.4660222668167777e-02  2.4517109410575159e-02  2.4099136669676072e-02  2.3411947726096553e-02  2.2464657668655321e-02  2.1269605852666660e-02  1.9842036471618047e-02  1.8199728815509294e-02  1.6362601144365264e-02  1.4352312242626881e-02  1.2191882644216789e-02  9.9053534447166181e-03  7.5174949533195800e-03  5.0535707510767471e-03  2.5391557110758084e-03  0.0000000000000000e+00  0.0000000000000000e+00  2.8376679475056693e-03  5.6456030471336493e-03  8.3951641187930727e-03  1.1057917671499615e-02  1.3605787947160148e-02  1.6011262549883311e-02  1.8247660980727647e-02  2.0289465972498151e-02  2.2112709884118693e-02  2.3695401273420097e-02  2.5017970811659507e-02  2.6063711532285403e-02  2.6819186458021674e-02  2.7274577149415231e-02  2.7423949651394872e-02  2.7265419430449217e-02  2.6801203727822721e-02  2.6037557669113011e-02  2.4984598726884560e-02  2.3656031955600915e-02  2.2068795074389198e-02  2.0242647343206271e-02  1.8199728815509290e-02  1.5964116725467915e-02  1.3561403488259835e-02  1.1018316304049305e-02  8.3623921221654841e-03  5.6217143817062542e-03  2.8247102642242443e-03  0.0000000000000000e+00  0.0000000000000000e+00  3.0921163984720607e-03  6.1520110496734838e-03  9.1484554047293297e-03  1.2050447574884217e-02  1.4827376324937644e-02  1.7449245030641842e-02  1.9886963801712610e-02  2.2112709884118707e-02  2.4100348089060329e-02  2.5825895158154984e-02  2.7268005433905972e-02  2.8408450618128363e-02  2.9232564244187430e-02  2.9729622005280971e-02  2.9893132255430055e-02  2.9721016558212337e-02  2.9215667593436922e-02  2.8383880353018212e-02  2.7236661557058502e-02  2.5788930755018803e-02  2.4059133845411036e-02  2.2068795074389223e-02  1.9842036471618064e-02  1.7405093899796626e-02  1.4785856441842190e-02  1.2013450996893273e-02  9.1178872084377270e-03  6.1297698997401385e-03  3.0800778627454745e-03  0.0000000000000000e+00  0.0000000000000000e+00  3.3128721209038916e-03  6.5913942873672381e-03  9.8020943402041278e-03  1.2911742358335979e-02  1.5887526679864285e-02  1.8697293758162911e-02  2.1309860772783087e-02  2.3695401273420097e-02  2.5825895158154980e-02  2.7675625858543645e-02  2.9221700560209611e-02  3.0444564337711793e-02  3.1328476738412256e-02  3.1861919873942518e-02  3.2037910454353231e-02  3.1854194136460137e-02  3.1313308511905467e-02  3.0422510292536752e-02  2.9193571896278206e-02  2.7642461790541559e-02  2.5788930755018816e-02  2.3656031955600943e-02  2.1269605852666674e-02  1.8657761229874038e-02  1.5850381033252123e-02  1.2878676543129658e-02  9.7748062029242924e-03  6.5715669382557110e-03  3.3021568837907811e-03  0.0000000000000000e+00  0.0000000000000000e+00  3.4972117130260935e-03  6.9583316094614499e-03  1.0348014547420802e-02  1.3631169888081902e-02  1.6773147478695245e-02  1.9739990731848719e-02  2.2498766308026632e-02  2.5017970811659501e-02  2.7268005433905972e-02  2.9221700560209618e-02  3.0854864897834813e-02  3.2146828422227193e-02  3.3080945934933326e-02  3.3645028549097671e-02  3.3831673957100933e-02  3.3638472581506977e-02  3.3068075094033283e-02  3.2128116528051816e-02  3.0831002395813815e-02  2.9193571896278220e-02  2.7236661557058530e-02  2.4984598726884601e-02  2.2464657668655359e-02  1.9706511310424342e-02  1.6741709000407955e-02  1.3603205184423997e-02  1.0324956346739215e-02  6.9415946037925166e-03  3.4881769225361616e-03  0.0000000000000000e+00  0.0000000000000000e+00  3.6428135110900439e-03  7.2482007154120644e-03  1.0779337035827216e-02  1.4199661377221956e-02  1.7473069902674804e-02  2.0564179480890659e-02  2.3438670780313354e-02  2.6063711532285420e-02  2.8408450618128394e-02  3.0444564337711803e-02  3.2146828422227193e-02  3.3493683851229972e-02  3.4467761893564583e-02  3.5056334307373233e-02  3.5251658293942112e-02  3.5051192285924945e-02  3.4457667369386991e-02  3.3479009280136772e-02  3.2128116528051830e-02  3.0422510292536772e-02  2.8383880353018257e-02  2.6037557669113077e-02  2.3411947726096591e-02  2.0537959110917520e-02  1.7448458987835168e-02  1.4177781512640802e-02  1.0761307347502308e-02  7.2351231190994243e-03  3.6357598427358183e-03  0.0000000000000000e+00  0.0000000000000000e+00  3.7478146272377612e-03  7.4572916316412831e-03  1.1090538901256808e-02  1.4609933520773735e-02  1.7978321099061639e-02  2.1159286601257616e-02  2.4117507012974677e-02  2.6819186458021688e-02  2.9232564244187451e-02  3.1328476738412291e-02  3.3080945934933360e-02  3.4467761893564604e-02  3.5471023479981281e-02  3.6077602341255281e-02  3.6279498788489191e-02  3.6074064909894198e-02  3.5464079193857669e-02  3.4457667369386956e-02  3.3068075094033249e-02  3.1313308511905481e-02  2.9215667593436967e-02  2.6801203727822801e-02  2.4099136669676145e-02  2.1141266330359901e-02  1.7961412054426463e-02  1.4594906250472026e-02  1.1078161154603175e-02  7.4483179184569089e-03  3.7429770992501964e-03  0.0000000000000000e+00  0.0000000000000000e+00  3.8108594168087440e-03  7.5829032261383227e-03  1.1277596950125769e-02  1.4856677798871700e-02  1.8282357262771970e-02  2.1517596262293760e-02  2.4526463417770573e-02  2.7274577149415249e-02  2.9729622005280974e-02  3.1861919873942532e-02  3.3645028549097691e-02  3.5056334307373239e-02  3.6077602341255274e-02  3.6695449370185609e-02  3.6901706527969765e-02  3.6693647366675686e-02  3.6074064909894184e-02  3.5051192285924911e-02  3.3638472581506929e-02  3.1854194136460123e-02  2.9721016558212372e-02  2.7265419430449262e-02  2.4517109410575191e-02  2.1508421835021274e-02  1.8273750079417894e-02  1.4849030072416962e-02  1.1271299145995799e-02  7.5783386579733542e-03  3.8083995262757236e-03  0.0000000000000000e+00  0.0000000000000000e+00  3.8311361688437491e-03  7.6234163552107142e-03  1.1338096677198258e-02  1.4936704281997202e-02  1.8381240900617435e-02  2.1634459208134581e-02  2.4660222668167774e-02  2.7423949651394892e-02  2.9893132255430100e-02  3.2037910454353259e-02  3.3831673957100954e-02  3.5251658293942167e-02  3.6279498788489198e-02  3.6901706527969737e-02  3.7110034213412441e-02  3.6901706527969792e-02  3.6279498788489170e-02  3.5251658293942098e-02  3.3831673957100919e-02  3.2037910454353218e-02  2.9893132255430069e-02  2.7423949651394872e-02  2.4660222668167739e-02  2.1634459208134546e-02  1.8381240900617414e-02  1.4936704281997198e-02  1.1338096677198256e-02  7.6234163552107090e-03  3.8311361688437473e-03  0.0000000000000000e+00  0.0000000000000000e+00  3.8083995262757227e-03  7.5783386579733490e-03  1.1271299145995790e-02  1.4849030072416952e-02  1.8273750079417887e-02  2.1508421835021281e-02  2.4517109410575184e-02  2.7265419430449234e-02  2.9721016558212365e-02  3.1854194136460137e-02  3.3638472581506977e-02  3.5051192285924966e-02  3.6074064909894211e-02  3.6693647366675686e-02  3.6901706527969758e-02  3.6695449370185602e-02  3.6077602341255233e-02  3.5056334307373170e-02  3.3645028549097629e-02  3.1861919873942497e-02  2.9729622005280960e-02  2.7274577149415231e-02  2.4526463417770532e-02  2.1517596262293714e-02  1.8282357262771939e-02  1.4856677798871695e-02  1.1277596950125786e-02  7.5829032261383201e-03  3.8108594168087422e-03  0.0000000000000000e+00  0.0000000000000000e+00  3.7429770992501925e-03  7.4483179184568976e-03  1.1078161154603156e-02  1.4594906250471999e-02  1.7961412054426442e-02  2.1141266330359891e-02  2.4099136669676075e-02  2.6801203727822711e-02  2.9215667593436915e-02  3.1313308511905488e-02  3.3068075094033283e-02  3.4457667369386998e-02  3.5464079193857655e-02  3.6074064909894198e-02  3.6279498788489170e-02  3.6077602341255260e-02  3.5471023479981233e-02  3.4467761893564521e-02  3.3080945934933277e-02  3.1328476738412228e-02  2.9232564244187423e-02  2.6819186458021692e-02  2.4117507012974628e-02  2.1159286601257564e-02  1.7978321099061594e-02  1.4609933520773721e-02  1.1090538901256794e-02  7.4572916316412701e-03  3.7478146272377538e-03  0.0000000000000000e+00  0.0000000000000000e+00  3.6357598427358118e-03  7.2351231190994104e-03  1.0761307347502297e-02  1.4177781512640781e-02  1.7448458987835130e-02  2.0537959110917499e-02  2.3411947726096536e-02  2.6037557669113004e-02  2.8383880353018205e-02  3.0422510292536752e-02  3.2128116528051830e-02  3.3479009280136793e-02  3.4457667369386984e-02  3.5051192285924918e-02  3.5251658293942112e-02  3.5056334307373184e-02  3.4467761893564541e-02  3.3493683851229895e-02  3.2146828422227103e-02  3.0444564337711744e-02  2.8408450618128338e-02  2.6063711532285382e-02  2.3438670780313291e-02  2.0564179480890597e-02  1.7473069902674741e-02  1.4199661377221919e-02  1.0779337035827194e-02  7.2482007154120410e-03  3.6428135110900344e-03  0.0000000000000000e+00  0.0000000000000000e+00  3.4881769225361598e-03  6.9415946037925114e-03  1.0324956346739207e-02  1.3603205184423987e-02  1.6741709000407935e-02  1.9706511310424335e-02  2.2464657668655342e-02  2.4984598726884574e-02  2.7236661557058492e-02  2.9193571896278206e-02  3.0831002395813819e-02  3.2128116528051830e-02  3.3068075094033256e-02  3.3638472581506942e-02  3.3831673957100905e-02  3.3645028549097636e-02  3.3080945934933277e-02  3.2146828422227110e-02  3.0854864897834743e-02  2.9221700560209583e-02  2.7268005433905958e-02  2.5017970811659487e-02  2.2498766308026625e-02  1.9739990731848671e-02  1.6773147478695183e-02  1.3631169888081864e-02  1.0348014547420776e-02  6.9583316094614231e-03  3.4972117130260827e-03  0.0000000000000000e+00  0.0000000000000000e+00  3.3021568837907824e-03  6.5715669382557084e-03  9.7748062029242924e-03  1.2878676543129656e-02  1.5850381033252123e-02  1.8657761229874045e-02  2.1269605852666667e-02  2.3656031955600908e-02  2.5788930755018785e-02  2.7642461790541539e-02  2.9193571896278216e-02  3.0422510292536772e-02  3.1313308511905502e-02  3.1854194136460116e-02  3.2037910454353204e-02  3.1861919873942483e-02  3.1328476738412228e-02  3.0444564337711727e-02  2.9221700560209569e-02  2.7675625858543617e-02  2.5825895158154973e-02  2.3695401273420104e-02  2.1309860772783105e-02  1.8697293758162883e-02  1.5887526679864247e-02  1.2911742358335950e-02  9.8020943402041052e-03  6.5913942873672233e-03  3.3128721209038843e-03  0.0000000000000000e+00  0.0000000000000000e+00  3.0800778627454789e-03  6.1297698997401420e-03  9.1178872084377340e-03  1.2013450996893280e-02  1.4785856441842200e-02  1.7405093899796640e-02  1.9842036471618047e-02  2.2068795074389171e-02  2.4059133845410991e-02  2.5788930755018771e-02  2.7236661557058513e-02  2.8383880353018240e-02  2.9215667593436953e-02  2.9721016558212347e-02  2.9893132255430062e-02  2.9729622005280940e-02  2.9232564244187399e-02  2.8408450618128325e-02  2.7268005433905944e-02  2.5825895158154973e-02  2.4100348089060357e-02  2.2112709884118745e-02  1.9886963801712627e-02  1.7449245030641831e-02  1.4827376324937616e-02  1.2050447574884207e-02  9.1484554047293193e-03  6.1520110496734804e-03  3.0921163984720581e-03  0.0000000000000000e+00  0.0000000000000000e+00  2.8247102642242482e-03  5.6217143817062594e-03  8.3623921221654979e-03  1.1018316304049310e-02  1.3561403488259837e-02  1.5964116725467929e-02  1.8199728815509294e-02  2.0242647343206254e-02  2.2068795074389191e-02  2.3656031955600912e-02  2.4984598726884584e-02  2.6037557669113049e-02  2.6801203727822760e-02  2.7265419430449241e-02  2.7423949651394879e-02  2.7274577149415235e-02  2.6819186458021688e-02  2.6063711532285379e-02  2.5017970811659483e-02  2.3695401273420111e-02  2.2112709884118766e-02  2.0289465972498207e-02  1.8247660980727689e-02  1.6011262549883335e-02  1.3605787947160155e-02  1.1057917671499620e-02  8.3951641187930727e-03  5.6456030471336519e-03  2.8376679475056697e-03  0.0000000000000000e+00  0.0000000000000000e+00  2.5391557110758098e-03  5.0535707510767488e-03  7.5174949533195808e-03  9.9053534447166164e-03  1.2191882644216778e-02  1.4352312242626876e-02  1.6362601144365264e-02  1.8199728815509277e-02  1.9842036471618033e-02  2.1269605852666660e-02  2.2464657668655335e-02  2.3411947726096553e-02  2.4099136669676086e-02  2.4517109410575184e-02  2.4660222668167763e-02  2.4526463417770556e-02  2.4117507012974663e-02  2.3438670780313302e-02  2.2498766308026618e-02  2.1309860772783084e-02  1.9886963801712620e-02  1.8247660980727685e-02  1.6411717774406680e-02  1.4400678091838478e-02  1.2237480007430331e-02  9.9461074339022865e-03  7.5512912488800770e-03  5.0782670431563023e-03  2.5525898993976810e-03  0.0000000000000000e+00  0.0000000000000000e+00  2.2267861455062248e-03  4.4320473055908804e-03  6.5931695621269503e-03  8.6876968554677417e-03  1.0693450713676179e-02  1.2588689120690159e-02  1.4352312242626874e-02  1.5964116725467905e-02  1.7405093899796616e-02  1.8657761229874024e-02  1.9706511310424318e-02  2.0537959110917492e-02  2.1141266330359870e-02  2.1508421835021257e-02  2.1634459208134536e-02  2.1517596262293708e-02  2.1159286601257564e-02  2.0564179480890607e-02  1.9739990731848674e-02  1.8697293758162880e-02  1.7449245030641821e-02  1.6011262549883325e-02  1.4400678091838471e-02  1.2636384471469001e-02  1.0738497562338108e-02  8.7280495846306771e-03  6.6267255951712569e-03  4.4566496929681768e-03  2.2402217558387854e-03  0.0000000000000000e+00  0.0000000000000000e+00  1.8911867715132439e-03  3.7642759935290859e-03  5.6000184819251699e-03  7.3793075143657157e-03  9.0832802293650001e-03  1.0693450713676190e-02  1.2191882644216789e-02  1.3561403488259825e-02  1.4785856441842190e-02  1.5850381033252120e-02  1.6741709000407938e-02  1.7448458987835140e-02  1.7961412054426428e-02  1.8273750079417894e-02  1.8381240900617397e-02  1.8282357262771918e-02  1.7978321099061584e-02  1.7473069902674745e-02  1.6773147478695204e-02  1.5887526679864254e-02  1.4827376324937618e-02  1.3605787947160162e-02  1.2237480007430327e-02  1.0738497562338105e-02  9.1259240987537401e-03  7.4176195082372538e-03  5.6319943271176806e-03  3.7878259246993669e-03  1.9041178964129617e-03  0.0000000000000000e+00  0.0000000000000000e+00  1.5361062199519234e-03  3.0577116329660791e-03  4.5491206727925520e-03  5.9947699346164143e-03  7.3793075143657157e-03  8.6876968554677469e-03  9.9053534447166216e-03  1.1018316304049305e-02  1.2013450996893276e-02  1.2878676543129656e-02  1.3603205184423994e-02  1.4177781512640783e-02  1.4594906250471990e-02  1.4849030072416940e-02  1.4936704281997178e-02  1.4856677798871665e-02  1.4609933520773695e-02  1.4199661377221909e-02  1.3631169888081869e-02  1.2911742358335955e-02  1.2050447574884207e-02  1.1057917671499622e-02  9.9461074339022