<?xml version="1.0"?>
<VTKFile type="UnstructuredGrid"  version="0.1"  >
<UnstructuredGrid>
<Piece  NumberOfPoints="961" NumberOfCells="1800">
<Points>
<DataArray  type="Float64"  NumberOfComponents="3"  format="ascii">-2 -2 0  -1.866666666666667 -2 0  -1.733333333333333 -2 0  -1.6 -2 0  -1.466666666666667 -2 0  -1.333333333333333 -2 0  -1.2 -2 0  -1.066666666666667 -2 0  -0.9333333333333333 -2 0  -0.8 -2 0  -0.6666666666666667 -2 0  -0.5333333333333334 -2 0  -0.3999999999999999 -2 0  -0.2666666666666666 -2 0  -0.1333333333333333 -2 0  0 -2 0  0.1333333333333333 -2 0  0.2666666666666666 -2 0  0.3999999999999999 -2 0  0.5333333333333332 -2 0  0.6666666666666665 -2 0  0.7999999999999998 -2 0  0.9333333333333331 -2 0  1.066666666666667 -2 0  1.2 -2 0  1.333333333333333 -2 0  1.466666666666667 -2 0  1.6 -2 0  1.733333333333333 -2 0  1.866666666666667 -2 0  2 -2 0  -2 -1.866666666666667 0  -1.866666666666667 -1.866666666666667 0  -1.733333333333333 -1.866666666666667 0  -1.6 -1.866666666666667 0  -1.466666666666667 -1.866666666666667 0  -1.333333333333333 -1.866666666666667 0  -1.2 -1.866666666666667 0  -1.066666666666667 -1.866666666666667 0  -0.9333333333333333 -1.866666666666667 0  -0.8 -1.866666666666667 0  -0.6666666666666667 -1.866666666666667 0  -0.5333333333333334 -1.866666666666667 0  -0.3999999999999999 -1.866666666666667 0  -0.2666666666666666 -1.866666666666667 0  -0.1333333333333333 -1.866666666666667 0  0 -1.866666666666667 0  0.1333333333333333 -1.866666666666667 0  0.2666666666666666 -1.866666666666667 0  0.3999999999999999 -1.866666666666667 0  0.5333333333333332 -1.866666666666667 0  0.6666666666666665 -1.866666666666667 0  0.7999999999999998 -1.866666666666667 0  0.9333333333333331 -1.866666666666667 0  1.066666666666667 -1.866666666666667 0  1.2 -1.866666666666667 0  1.333333333333333 -1.866666666666667 0  1.466666666666667 -1.866666666666667 0  1.6 -1.866666666666667 0  1.733333333333333 -1.866666666666667 0  1.866666666666667 -1.866666666666667 0  2 -1.866666666666667 0  -2 -1.733333333333333 0  -1.866666666666667 -1.733333333333333 0  -1.733333333333333 -1.733333333333333 0  -1.6 -1.733333333333333 0  -1.466666666666667 -1.733333333333333 0  -1.333333333333333 -1.733333333333333 0  -1.2 -1.733333333333333 0  -1.066666666666667 -1.733333333333333 0  -0.9333333333333333 -1.733333333333333 0  -0.8 -1.733333333333333 0  -0.6666666666666667 -1.733333333333333 0  -0.5333333333333334 -1.733333333333333 0  -0.3999999999999999 -1.733333333333333 0  -0.2666666666666666 -1.733333333333333 0  -0.1333333333333333 -1.733333333333333 0  0 -1.733333333333333 0  0.1333333333333333 -1.733333333333333 0  0.2666666666666666 -1.733333333333333 0  0.3999999999999999 -1.733333333333333 0  0.5333333333333332 -1.733333333333333 0  0.6666666666666665 -1.733333333333333 0  0.7999999999999998 -1.733333333333333 0  0.9333333333333331 -1.733333333333333 0  1.066666666666667 -1.733333333333333 0  1.2 -1.733333333333333 0  1.333333333333333 -1.733333333333333 0  1.466666666666667 -1.733333333333333 0  1.6 -1.733333333333333 0  1.733333333333333 -1.733333333333333 0  1.866666666666667 -1.733333333333333 0  2 -1.733333333333333 0  -2 -1.6 0  -1.866666666666667 -1.6 0  -1.733333333333333 -1.6 0  -1.6 -1.6 0  -1.466666666666667 -1.6 0  -1.333333333333333 -1.6 0  -1.2 -1.6 0  -1.066666666666667 -1.6 0  -0.9333333333333333 -1.6 0  -0.8 -1.6 0  -0.6666666666666667 -1.6 0  -0.5333333333333334 -1.6 0  -0.3999999999999999 -1.6 0  -0.2666666666666666 -1.6 0  -0.1333333333333333 -1.6 0  0 -1.6 0  0.1333333333333333 -1.6 0  0.2666666666666666 -1.6 0  0.3999999999999999 -1.6 0  0.5333333333333332 -1.6 0  0.6666666666666665 -1.6 0  0.7999999999999998 -1.6 0  0.9333333333333331 -1.6 0  1.066666666666667 -1.6 0  1.2 -1.6 0  1.333333333333333 -1.6 0  1.466666666666667 -1.6 0  1.6 -1.6 0  1.733333333333333 -1.6 0  1.866666666666667 -1.6 0  2 -1.6 0  -2 -1.466666666666667 0  -1.866666666666667 -1.466666666666667 0  -1.733333333333333 -1.466666666666667 0  -1.6 -1.466666666666667 0  -1.466666666666667 -1.466666666666667 0  -1.333333333333333 -1.466666666666667 0  -1.2 -1.466666666666667 0  -1.066666666666667 -1.466666666666667 0  -0.9333333333333333 -1.466666666666667 0  -0.8 -1.466666666666667 0  -0.6666666666666667 -1.466666666666667 0  -0.5333333333333334 -1.466666666666667 0  -0.3999999999999999 -1.466666666666667 0  -0.2666666666666666 -1.466666666666667 0  -0.1333333333333333 -1.466666666666667 0  0 -1.466666666666667 0  0.1333333333333333 -1.466666666666667 0  0.2666666666666666 -1.466666666666667 0  0.3999999999999999 -1.466666666666667 0  0.5333333333333332 -1.466666666666667 0  0.6666666666666665 -1.466666666666667 0  0.7999999999999998 -1.466666666666667 0  0.9333333333333331 -1.466666666666667 0  1.066666666666667 -1.466666666666667 0  1.2 -1.466666666666667 0  1.333333333333333 -1.466666666666667 0  1.466666666666667 -1.466666666666667 0  1.6 -1.466666666666667 0  1.733333333333333 -1.466666666666667 0  1.866666666666667 -1.466666666666667 0  2 -1.466666666666667 0  -2 -1.333333333333333 0  -1.866666666666667 -1.333333333333333 0  -1.733333333333333 -1.333333333333333 0  -1.6 -1.333333333333333 0  -1.466666666666667 -1.333333333333333 0  -1.333333333333333 -1.333333333333333 0  -1.2 -1.333333333333333 0  -1.066666666666667 -1.333333333333333 0  -0.9333333333333333 -1.333333333333333 0  -0.8 -1.333333333333333 0  -0.6666666666666667 -1.333333333333333 0  -0.5333333333333334 -1.333333333333333 0  -0.3999999999999999 -1.333333333333333 0  -0.2666666666666666 -1.333333333333333 0  -0.1333333333333333 -1.333333333333333 0  0 -1.333333333333333 0  0.1333333333333333 -1.333333333333333 0  0.2666666666666666 -1.333333333333333 0  0.3999999999999999 -1.333333333333333 0  0.5333333333333332 -1.333333333333333 0  0.6666666666666665 -1.333333333333333 0  0.7999999999999998 -1.333333333333333 0  0.9333333333333331 -1.333333333333333 0  1.066666666666667 -1.333333333333333 0  1.2 -1.333333333333333 0  1.333333333333333 -1.333333333333333 0  1.466666666666667 -1.333333333333333 0  1.6 -1.333333333333333 0  1.733333333333333 -1.333333333333333 0  1.866666666666667 -1.333333333333333 0  2 -1.333333333333333 0  -2 -1.2 0  -1.866666666666667 -1.2 0  -1.733333333333333 -1.2 0  -1.6 -1.2 0  -1.466666666666667 -1.2 0  -1.333333333333333 -1.2 0  -1.2 -1.2 0  -1.066666666666667 -1.2 0  -0.9333333333333333 -1.2 0  -0.8 -1.2 0  -0.6666666666666667 -1.2 0  -0.5333333333333334 -1.2 0  -0.3999999999999999 -1.2 0  -0.2666666666666666 -1.2 0  -0.1333333333333333 -1.2 0  0 -1.2 0  0.1333333333333333 -1.2 0  0.2666666666666666 -1.2 0  0.3999999999999999 -1.2 0  0.5333333333333332 -1.2 0  0.6666666666666665 -1.2 0  0.7999999999999998 -1.2 0  0.9333333333333331 -1.2 0  1.066666666666667 -1.2 0  1.2 -1.2 0  1.333333333333333 -1.2 0  1.466666666666667 -1.2 0  1.6 -1.2 0  1.733333333333333 -1.2 0  1.866666666666667 -1.2 0  2 -1.2 0  -2 -1.066666666666667 0  -1.866666666666667 -1.066666666666667 0  -1.733333333333333 -1.066666666666667 0  -1.6 -1.066666666666667 0  -1.466666666666667 -1.066666666666667 0  -1.333333333333333 -1.066666666666667 0  -1.2 -1.066666666666667 0  -1.066666666666667 -1.066666666666667 0  -0.9333333333333333 -1.066666666666667 0  -0.8 -1.066666666666667 0  -0.6666666666666667 -1.066666666666667 0  -0.5333333333333334 -1.066666666666667 0  -0.3999999999999999 -1.066666666666667 0  -0.2666666666666666 -1.066666666666667 0  -0.1333333333333333 -1.066666666666667 0  0 -1.066666666666667 0  0.1333333333333333 -1.066666666666667 0  0.2666666666666666 -1.066666666666667 0  0.3999999999999999 -1.066666666666667 0  0.5333333333333332 -1.066666666666667 0  0.6666666666666665 -1.066666666666667 0  0.7999999999999998 -1.066666666666667 0  0.9333333333333331 -1.066666666666667 0  1.066666666666667 -1.066666666666667 0  1.2 -1.066666666666667 0  1.333333333333333 -1.066666666666667 0  1.466666666666667 -1.066666666666667 0  1.6 -1.066666666666667 0  1.733333333333333 -1.066666666666667 0  1.866666666666667 -1.066666666666667 0  2 -1.066666666666667 0  -2 -0.9333333333333333 0  -1.866666666666667 -0.9333333333333333 0  -1.733333333333333 -0.9333333333333333 0  -1.6 -0.9333333333333333 0  -1.466666666666667 -0.9333333333333333 0  -1.333333333333333 -0.9333333333333333 0  -1.2 -0.9333333333333333 0  -1.066666666666667 -0.9333333333333333 0  -0.9333333333333333 -0.9333333333333333 0  -0.8 -0.9333333333333333 0  -0.6666666666666667 -0.9333333333333333 0  -0.5333333333333334 -0.9333333333333333 0  -0.3999999999999999 -0.9333333333333333 0  -0.2666666666666666 -0.9333333333333333 0  -0.1333333333333333 -0.9333333333333333 0  0 -0.9333333333333333 0  0.1333333333333333 -0.9333333333333333 0  0.2666666666666666 -0.9333333333333333 0  0.3999999999999999 -0.9333333333333333 0  0.5333333333333332 -0.9333333333333333 0  0.6666666666666665 -0.9333333333333333 0  0.7999999999999998 -0.9333333333333333 0  0.9333333333333331 -0.9333333333333333 0  1.066666666666667 -0.9333333333333333 0  1.2 -0.9333333333333333 0  1.333333333333333 -0.9333333333333333 0  1.466666666666667 -0.9333333333333333 0  1.6 -0.9333333333333333 0  1.733333333333333 -0.9333333333333333 0  1.866666666666667 -0.9333333333333333 0  2 -0.9333333333333333 0  -2 -0.8 0  -1.866666666666667 -0.8 0  -1.733333333333333 -0.8 0  -1.6 -0.8 0  -1.466666666666667 -0.8 0  -1.333333333333333 -0.8 0  -1.2 -0.8 0  -1.066666666666667 -0.8 0  -0.9333333333333333 -0.8 0  -0.8 -0.8 0  -0.6666666666666667 -0.8 0  -0.5333333333333334 -0.8 0  -0.3999999999999999 -0.8 0  -0.2666666666666666 -0.8 0  -0.1333333333333333 -0.8 0  0 -0.8 0  0.1333333333333333 -0.8 0  0.2666666666666666 -0.8 0  0.3999999999999999 -0.8 0  0.5333333333333332 -0.8 0  0.6666666666666665 -0.8 0  0.7999999999999998 -0.8 0  0.9333333333333331 -0.8 0  1.066666666666667 -0.8 0  1.2 -0.8 0  1.333333333333333 -0.8 0  1.466666666666667 -0.8 0  1.6 -0.8 0  1.733333333333333 -0.8 0  1.866666666666667 -0.8 0  2 -0.8 0  -2 -0.6666666666666667 0  -1.866666666666667 -0.
[...]
<PointData  Scalars="f_468"> 
<DataArray  type="Float64"  Name="f_468"  format="ascii">0.0000000000000000e+00  0.0000000000000000e+00  0.0000000000000000e+00  0.0000000000000000e+00  0.0000000000000000e+00  0.0000000000000000e+00  0.0000000000000000e+00  0.0000000000000000e+00  0.0000000000000000e+00  0.0000000000000000e+00  0.0000000000000000e+00  0.0000000000000000e+00  0.0000000000000000e+00  0.0000000000000000e+00  0.0000000000000000e+00  0.0000000000000000e+00  0.0000000000000000e+00  0.0000000000000000e+00  0.0000000000000000e+00  0.0000000000000000e+00  0.0000000000000000e+00  0.0000000000000000e+00  0.0000000000000000e+00  0.0000000000000000e+00  0.0000000000000000e+00  0.0000000000000000e+00  0.0000000000000000e+00  0.0000000000000000e+00  0.0000000000000000e+00  0.0000000000000000e+00  0.0000000000000000e+00  0.0000000000000000e+00  5.9206102875574654e-04  1.1847498398363636e-03  1.7778339687781748e-03  2.3697483688313731e-03  2.9571266691000432e-03  3.5345286196533619e-03  4.0943954328563044e-03  4.6272452963903466e-03  5.1220986403768187e-03  5.5670997370443993e-03  5.9502804558998774e-03  6.2603958947830890e-03  6.4877522199192003e-03  6.6249458030079476e-03  6.6674401651435639e-03  6.6139227902388860e-03  6.4664059596106710e-03  6.2300619059558367e-03  5.9128097557963541e-03  5.5246967626786901e-03  5.0771363854074519e-03  4.5820786978822076e-03  4.0511932557915293e-03  3.4951407747761975e-03  2.9229986616991633e-03  2.3418882213955688e-03  1.7568303440372015e-03  1.1708339286156568e-03  5.8519936808929646e-04  0.0000000000000000e+00  0.0000000000000000e+00  1.1847498398363633e-03  2.3705722822284802e-03  3.5570761729741313e-03  4.7411797823857229e-03  5.9161907117574733e-03  7.0712640395400924e-03  8.1913119764813434e-03  9.2573926616460536e-03  1.0247558471764694e-02  1.1138097628284670e-02  1.1905061132893394e-02  1.2525934686876700e-02  1.2981296306935459e-02  1.3256297686073936e-02  1.3341822027718381e-02  1.3235202056256239e-02  1.2940426009767943e-02  1.2467811708316635e-02  1.1833183200030861e-02  1.1056634683692782e-02  1.0161006682762579e-02  9.1702254975438210e-03  8.1076664140139493e-03  6.9946937465680198e-03  5.8495082624979468e-03  4.6863981625288936e-03  3.5154478412045631e-03  2.3427137922529154e-03  1.1708339286156568e-03  0.0000000000000000e+00  0.0000000000000000e+00  1.7778339687781755e-03  3.5570761729741313e-03  5.3372047316556257e-03  7.1136619862286234e-03  8.8764699663315596e-03  1.0609415190780043e-02  1.2289910007334672e-02  1.3889572296289504e-02  1.5375494851812947e-02  1.6712105786857650e-02  1.7863458504129130e-02  1.8795740998079121e-02  1.9479765590715539e-02  1.9893195945714180e-02  2.0022289980481296e-02  1.9862983569659456e-02  1.9421205986976272e-02  1.8712396471490485e-02  1.7760273035526054e-02  1.6594980137100940e-02  1.5250802524370508e-02  1.3763671924740772e-02  1.2168707690654113e-02  1.0498021613102806e-02  8.7789834396903160e-03  7.0330921076303668e-03  5.2755347230020412e-03  3.5154478412045618e-03  1.7568303440372011e-03  0.0000000000000000e+00  0.0000000000000000e+00  2.3697483688313744e-03  4.7411797823857255e-03  7.1136619862286268e-03  9.4811975494170676e-03  1.1830566592122987e-02  1.4140232859466988e-02  1.6380152760752564e-02  1.8512542485735070e-02  2.0493565316077881e-02  2.2275808258914759e-02  2.3811333372895892e-02  2.5055023931835469e-02  2.5967907063169992e-02  2.6520128477754909e-02  2.6693283601813531e-02  2.6481870840934073e-02  2.5893720606307156e-02  2.4949358287753649e-02  2.3680368448746443e-02  2.2126928436415942e-02  2.0334760843458723e-02  1.8351807109374150e-02  1.6224944139883180e-02  1.3997051553062646e-02  1.1704692414723616e-02  9.3766016395388820e-03  7.0330921076303668e-03  4.6863981625288936e-03  2.3418882213955675e-03  0.0000000000000000e+00  0.0000000000000000e+00  2.9571266691000449e-03  5.9161907117574767e-03  8.8764699663315613e-03  1.1830566592122994e-02  1.4762075495821292e-02  1.7644208509143753e-02  2.0439547047805109e-02  2.3100991661565692e-02  2.5573861563241655e-02  2.7798981464316950e-02  2.9716488493642723e-02  3.1270010337789415e-02  3.2410817312253121e-02  3.3101543127657243e-02  3.3319104511711793e-02  3.3056526176447956e-02  3.2323487149412522e-02  3.1145534987867440e-02  2.9562050746128752e-02  2.7623173875901168e-02  2.5385998095927013e-02  2.2910415713705855e-02  2.0255012769360495e-02  1.7473399881877447e-02  1.4611307989380361e-02  1.1704692414723617e-02  8.7789834396903143e-03  5.8495082624979450e-03  2.9229986616991629e-03  0.0000000000000000e+00  0.0000000000000000e+00  3.5345286196533641e-03  7.0712640395400941e-03  1.0609415190780050e-02  1.4140232859467002e-02  1.7644208509143753e-02  2.1089416884621088e-02  2.4431208847212733e-02  2.7613336513975732e-02  3.0570455285992563e-02  3.3231809126139843e-02  3.5525780369344860e-02  3.7384887444965917e-02  3.8750755534814260e-02  3.9578575163244298e-02  3.9840605527468105e-02  3.9528370237710671e-02  3.8653323878708165e-02  3.7245923848656444e-02  3.5353205204341674e-02  3.3035107703277500e-02  3.0359926582428334e-02  2.7399338656769308e-02  2.4223485613216033e-02  2.0896575857403132e-02  1.7473399881877436e-02  1.3997051553062634e-02  1.0498021613102801e-02  6.9946937465680129e-03  3.4951407747761945e-03  0.0000000000000000e+00  0.0000000000000000e+00  4.0943954328563088e-03  8.1913119764813521e-03  1.2289910007334688e-02  1.6380152760752598e-02  2.0439547047805134e-02  2.4431208847212754e-02  2.8303493843134141e-02  3.1991288936046337e-02  3.5418901604256009e-02  3.8504323859888626e-02  4.1164502428295578e-02  4.3321132936061733e-02  4.4906427710123785e-02  4.5868294532925763e-02  4.6174411540308616e-02  4.5814788265774287e-02  4.4802554089889299e-02  4.3172896205632284e-02  4.0980258717926793e-02  3.8294090550732907e-02  3.5193572301096564e-02  3.1761845659901491e-02  2.8080304772203923e-02  2.4223485613216036e-02  2.0255012769360491e-02  1.6224944139883173e-02  1.2168707690654102e-02  8.1076664140139389e-03  4.0511932557915258e-03  0.0000000000000000e+00  0.0000000000000000e+00  4.6272452963903527e-03  9.2573926616460623e-03  1.3889572296289524e-02  1.8512542485735101e-02  2.3100991661565734e-02  2.7613336513975777e-02  3.1991288936046379e-02  3.6161301806035467e-02  4.0037823764254021e-02  4.3528112041099055e-02  4.6538188056779950e-02  4.8979391306012796e-02  5.0774909280536872e-02  5.1865646566890460e-02  5.2214849625850296e-02  5.1811021704460829e-02  5.0668833041038829e-02  4.8827936017691941e-02  4.6349809522592704e-02  4.3312956458723947e-02  3.9806940211262014e-02  3.5925852427757046e-02  3.1761845659901505e-02  2.7399338656769322e-02  2.2910415713705865e-02  1.8351807109374153e-02  1.3763671924740758e-02  9.1702254975438123e-03  4.5820786978822076e-03  0.0000000000000000e+00  0.0000000000000000e+00  5.1220986403768274e-03  1.0247558471764706e-02  1.5375494851812969e-02  2.0493565316077926e-02  2.5573861563241693e-02  3.0570455285992608e-02  3.5418901604256044e-02  4.0037823764254049e-02  4.4332503675287363e-02  4.8200202198002307e-02  5.1536750762979353e-02  5.4243812219238706e-02  5.6236121912557578e-02  5.7448002930252623e-02  5.7838507714558764e-02  5.7394668204662526e-02  5.6132525355306051e-02  5.4095835349057458e-02  5.1352587864584680e-02  4.7989693591142371e-02  4.4106378357564868e-02  3.9806940211262035e-02  3.5193572301096591e-02  3.0359926582428382e-02  2.5385998095927051e-02  2.0334760843458744e-02  1.5250802524370511e-02  1.0161006682762579e-02  5.0771363854074528e-03  0.0000000000000000e+00  0.0000000000000000e+00  5.5670997370444080e-03  1.1138097628284686e-02  1.6712105786857685e-02  2.2275808258914800e-02  2.7798981464317002e-02  3.3231809126139912e-02  3.8504323859888674e-02  4.3528112041099083e-02  4.8200202198002341e-02  5.2408838868760368e-02  5.6040645202001041e-02  5.8988520676045909e-02  6.1159524932869233e-02  6.2481979176350608e-02  6.2911078988651697e-02  6.2432452973336945e-02  6.1063306375626715e-02  5.8851035061969398e-02  5.5869454482496014e-02  5.2213030211643426e-02  4.7989693591142371e-02  4.3312956458723982e-02  3.8294090550732941e-02  3.3035107703277555e-02  2.7623173875901196e-02  2.2126928436415956e-02  1.6594980137100944e-02  1.1056634683692789e-02  5.5246967626786927e-03  0.0000000000000000e+00  0.0000000000000000e+00  5.9502804558998869e-03  1.1905061132893418e-02  1.7863458504129171e-02  2.3811333372895954e-02  2.9716488493642806e-02  3.5525780369344950e-02  4.1164502428295655e-02  4.6538188056780005e-02  5.1536750762979394e-02  5.6040645202001062e-02  5.9928519940321230e-02  6.3085664331025942e-02  6.5412448910342619e-02  6.6831936731001990e-02  6.7295908717953448e-02  6.6788695570877216e-02  6.5328427160239635e-02  6.2965573593321111e-02  5.9778929731154597e-02  5.5869454482496063e-02  5.1352587864584680e-02  4.6349809522592718e-02  4.0980258717926793e-02  3.5353205204341751e-02  2.9562050746128787e-02  2.3680368448746467e-02  1.7760273035526065e-02  1.1833183200030873e-02  5.9128097557963602e-03  0.0000000000000000e+00  0.0000000000000000e+00  6.2603958947831046e-03  1.2525934686876730e-02  1.8795740998079180e-02  2.5055023931835542e-02  3.1270010337789506e-02  3.7384887444966021e-02  4.3321132936061796e-02  4.8979391306012872e-02  5.4243812219238761e-02  5.8988520676045930e-02  6.3085664331025942e-02  6.6414305178128893e-02  6.8869313412032507e-02  7.0369396948840340e-02  7.0863468058187232e-02  7.0334704902082781e-02  6.8801895089448090e-02  6.6317925298782124e-02  6.2965573593321042e-02  5.8851035061969363e-02  5.4095835349057445e-02  4.8827936017691968e-02  4.3172896205632319e-02  3.7245923848656499e-02  3.1145534987867454e-02  2.4949358287753666e-02  1.8712396471490499e-02  1.2467811708316642e-02  6.2300619059558427e-03  0.0000000000000000e+00  0.0000000000000000e+00  6.4877522199192203e-03  1.2981296306935505e-02  1.9479765590715604e-02  2.5967907063170113e-02  3.2410817312253259e-02  3.8750755534814420e-02  4.4906427710123945e-02  5.0774909280536996e-02  5.6236121912557689e-02  6.1159524932869344e-02  6.5412448910342660e-02  6.8869313412032618e-02  7.1420856471910335e-02  7.2982476858622455e-02  7.3500859466607241e-02  7.2958215206228000e-02  7.1373703833887525e-02  6.8801895089448131e-02  6.5328427160239622e-02  6.1063306375626722e-02  5.6132525355306072e-02  5.0668833041038898e-02  4.4802554089889375e-02  3.8653323878708248e-02  3.2323487149412564e-02  2.5893720606307190e-02  1.9421205986976296e-02  1.2940426009767959e-02  6.4664059596106771e-03  0.0000000000000000e+00  0.0000000000000000e+00  6.6249458030079745e-03  1.3256297686074007e-02  1.9893195945714277e-02  2.6520128477755037e-02  3.3101543127657437e-02  3.9578575163244506e-02  4.5868294532925943e-02  5.1865646566890647e-02  5.7448002930252796e-02  6.2481979176350753e-02  6.6831936731002087e-02  7.0369396948840465e-02  7.2982476858622511e-02  7.4584427931483219e-02  7.5120428655825036e-02  7.4571945117729063e-02  7.2958215206228055e-02  7.0334704902082795e-02  6.6788695570877202e-02  6.2432452973336910e-02  5.7394668204662519e-02  5.1811021704460898e-02  4.5814788265774370e-02  3.9528370237710740e-02  3.3056526176447991e-02  2.6481870840934115e-02  1.9862983569659501e-02  1.3235202056256262e-02  6.6139227902388947e-03  0.0000000000000000e+00  0.0000000000000000e+00  6.6674401651435986e-03  1.3341822027718459e-02  2.0022289980481396e-02  2.6693283601813673e-02  3.3319104511711994e-02  3.9840605527468341e-02  4.6174411540308859e-02  5.2214849625850532e-02  5.7838507714558965e-02  6.2911078988651933e-02  6.7295908717953629e-02  7.0863468058187426e-02  7.3500859466607435e-02  7.5120428655825161e-02  7.5666626622535010e-02  7.5120428655825064e-02  7.3500859466607268e-02  7.0863468058187246e-02  6.7295908717953407e-02  6.2911078988651684e-02  5.7838507714558757e-02  5.2214849625850393e-02  4.6174411540308706e-02  3.9840605527468188e-02  3.3319104511711835e-02  2.6693283601813552e-02  2.0022289980481316e-02  1.3341822027718404e-02  6.6674401651435700e-03  0.0000000000000000e+00  0.0000000000000000e+00  6.6139227902389233e-03  1.3235202056256322e-02  1.9862983569659591e-02  2.6481870840934240e-02  3.3056526176448157e-02  3.9528370237710900e-02  4.5814788265774530e-02  5.1811021704461058e-02  5.7394668204662776e-02  6.2432452973337209e-02  6.6788695570877507e-02  7.0334704902083073e-02  7.2958215206228305e-02  7.4571945117729257e-02  7.5120428655825133e-02  7.4584427931483233e-02  7.2982476858622483e-02  7.0369396948840340e-02  6.6831936731001892e-02  6.2481979176350559e-02  5.7448002930252616e-02  5.1865646566890529e-02  4.5868294532925832e-02  3.9578575163244360e-02  3.3101543127657292e-02  2.6520128477754926e-02  1.9893195945714197e-02  1.3256297686073946e-02  6.6249458030079493e-03  0.0000000000000000e+00  0.0000000000000000e+00  6.4664059596107083e-03  1.2940426009768021e-02  1.9421205986976386e-02  2.5893720606307322e-02  3.2323487149412723e-02  3.8653323878708415e-02  4.4802554089889556e-02  5.0668833041039099e-02  5.6132525355306315e-02  6.1063306375627027e-02  6.5328427160239941e-02  6.8801895089448478e-02  7.1373703833887817e-02  7.2958215206228305e-02  7.3500859466607393e-02  7.2982476858622525e-02  7.1420856471910335e-02  6.8869313412032465e-02  6.5412448910342536e-02  6.1159524932869178e-02  5.6236121912557592e-02  5.0774909280536941e-02  4.4906427710123820e-02  3.8750755534814316e-02  3.2410817312253155e-02  2.5967907063170013e-02  1.9479765590715542e-02  1.2981296306935459e-02  6.4877522199192012e-03  0.0000000000000000e+00  0.0000000000000000e+00  6.2300619059558757e-03  1.2467811708316713e-02  1.8712396471490606e-02  2.4949358287753815e-02  3.1145534987867662e-02  3.7245923848656687e-02  4.3172896205632513e-02  4.8827936017692183e-02  5.4095835349057729e-02  5.8851035061969675e-02  6.2965573593321403e-02  6.6317925298782471e-02  6.8801895089448450e-02  7.0334704902083073e-02  7.0863468058187426e-02  7.0369396948840465e-02  6.8869313412032562e-02  6.6414305178128824e-02  6.3085664331025873e-02  5.8988520676045895e-02  5.4243812219238699e-02  4.8979391306012830e-02  4.3321132936061747e-02  3.7384887444965945e-02  3.1270010337789429e-02  2.5055023931835479e-02  1.8795740998079138e-02  1.2525934686876702e-02  6.2603958947830907e-03  0.0000000000000000e+00  0.0000000000000000e+00  5.9128097557963940e-03  1.1833183200030944e-02  1.7760273035526176e-02  2.3680368448746606e-02  2.9562050746128943e-02  3.5353205204341910e-02  4.0980258717926994e-02  4.6349809522592954e-02  5.1352587864584971e-02  5.5869454482496327e-02  5.9778929731154930e-02  6.2965573593321375e-02  6.5328427160239969e-02  6.6788695570877507e-02  6.7295908717953656e-02  6.6831936731002142e-02  6.5412448910342716e-02  6.3085664331025929e-02  5.9928519940321202e-02  5.6040645202001013e-02  5.1536750762979346e-02  4.6538188056779971e-02  4.1164502428295613e-02  3.5525780369344874e-02  2.9716488493642727e-02  2.3811333372895895e-02  1.7863458504129119e-02  1.1905061132893378e-02  5.9502804558998739e-03  0.0000000000000000e+00  0.0000000000000000e+00  5.5246967626787283e-03  1.1056634683692862e-02  1.6594980137101048e-02  2.2126928436416088e-02  2.7623173875901352e-02  3.3035107703277722e-02  3.8294090550733122e-02  4.3312956458724197e-02  4.7989693591142628e-02  5.2213030211643696e-02  5.5869454482496334e-02  5.8851035061969696e-02  6.1063306375627076e-02  6.2432452973337223e-02  6.2911078988651947e-02  6.2481979176350809e-02  6.1159524932869400e-02  5.8988520676046020e-02  5.6040645202001083e-02  5.2408838868760417e-02  4.8200202198002341e-02  4.3528112041099049e-02  3.8504323859888660e-02  3.3231809126139877e-02  2.7798981464316950e-02  2.2275808258914766e-02  1.6712105786857657e-02  1.1138097628284670e-02  5.5670997370443976e-03  0.0000000000000000e+00  0.0000000000000000e+00  5.0771363854074901e-03  1.0161006682762654e-02  1.5250802524370612e-02  2.0334760843458879e-02  2.5385998095927200e-02  3.0359926582428556e-02  3.5193572301096793e-02  3.9806940211262243e-02  4.4106378357565090e-02  4.7989693591142614e-02  5.1352587864584971e-02  5.4095835349057778e-02  5.6132525355306377e-02  5.7394668204662817e-02  5.7838507714559027e-02  5.7448002930252859e-02  5.6236121912557835e-02  5.4243812219238900e-02  5.1536750762979484e-02  4.8200202198002411e-02  4.4332503675287412e-02  4.0037823764254035e-02  3.5418901604256044e-02  3.0570455285992601e-02  2.5573861563241686e-02  2.0493565316077902e-02  1.5375494851812952e-02  1.0247558471764697e-02  5.1220986403768222e-03  0.0000000000000000e+00  0.0000000000000000e+00  4.5820786978822414e-03  9.1702254975438817e-03  1.3763671924740858e-02  1.8351807109374282e-02  2.2910415713706004e-02  2.7399338656769478e-02  3.1761845659901672e-02  3.5925852427757247e-02  3.9806940211262264e-02  4.3312956458724218e-02  4.6349809522592961e-02  4.8827936017692246e-02  5.0668833041039155e-02  5.1811021704461141e-02  5.2214849625850608e-02  5.1865646566890737e-02  5.0774909280537114e-02  4.8979391306012997e-02  4.6538188056780089e-02  4.3528112041099139e-02  4.0037823764254056e-02  3.6161301806035495e-02  3.1991288936046372e-02  2.7613336513975774e-02  2.3100991661565713e-02  1.8512542485735084e-02  1.3889572296289510e-02  9.2573926616460606e-03  4.6272452963903501e-03  0.0000000000000000e+00  0.0000000000000000e+00  4.0511932557915544e-03  8.1076664140139997e-03  1.2168707690654189e-02  1.6224944139883297e-02  2.0255012769360637e-02  2.4223485613216179e-02  2.8080304772204051e-02  3.1761845659901644e-02  3.5193572301096779e-02  3.8294090550733129e-02  4.0980258717927001e-02  4.3172896205632548e-02  4.4802554089889569e-02  4.5814788265774564e-02  4.6174411540308852e-02  4.5868294532925978e-02  4.4906427710123986e-02  4.3321132936061872e-02  4.1164502428295682e-02  3.8504323859888709e-02  3.5418901604256071e-02  3.1991288936046400e-02  2.8303493843134148e-02  2.4431208847212733e-02  2.0439547047805109e-02  1.6380152760752571e-02  1.2289910007334672e-02  8.1913119764813434e-03  4.0943954328563053e-03  0.0000000000000000e+00  0.0000000000000000e+00  3.4951407747762196e-03  6.9946937465680667e-03  1.0498021613102881e-02  1.3997051553062745e-02  1.7473399881877568e-02  2.0896575857403264e-02  2.4223485613216158e-02  2.7399338656769457e-02  3.0359926582428545e-02  3.3035107703277722e-02  3.5353205204341931e-02  3.7245923848656708e-02  3.8653323878708450e-02  3.9528370237710907e-02  3.9840605527468320e-02  3.9578575163244513e-02  3.8750755534814489e-02  3.7384887444966063e-02  3.5525780369344971e-02  3.3231809126139933e-02  3.0570455285992653e-02  2.7613336513975809e-02  2.4431208847212765e-02  2.1089416884621084e-02  1.7644208509143743e-02  1.4140232859466976e-02  1.0609415190780042e-02  7.0712640395400898e-03  3.5345286196533606e-03  0.0000000000000000e+00  0.0000000000000000e+00  2.9229986616991820e-03  5.8495082624979849e-03  8.7789834396903750e-03  1.1704692414723696e-02  1.4611307989380462e-02  1.7473399881877547e-02  2.0255012769360609e-02  2.2910415713705987e-02  2.5385998095927176e-02  2.7623173875901352e-02  2.9562050746128974e-02  3.1145534987867651e-02  3.2323487149412730e-02  3.3056526176448151e-02  3.3319104511711960e-02  3.3101543127657410e-02  3.2410817312253259e-02  3.1270010337789540e-02  2.9716488493642813e-02  2.7798981464317012e-02  2.5573861563241727e-02  2.3100991661565744e-02  2.0439547047805137e-02  1.7644208509143746e-02  1.4762075495821281e-02  1.1830566592122975e-02  8.8764699663315509e-03  5.9161907117574733e-03  2.9571266691000441e-03  0.0000000000000000e+00  0.0000000000000000e+00  2.3418882213955836e-03  4.6863981625289240e-03  7.0330921076304145e-03  9.3766016395389461e-03  1.1704692414723701e-02  1.3997051553062726e-02  1.6224944139883263e-02  1.8351807109374250e-02  2.0334760843458845e-02  2.2126928436416077e-02  2.3680368448746610e-02  2.4949358287753822e-02  2.5893720606307333e-02  2.6481870840934240e-02  2.6693283601813670e-02  2.6520128477755034e-02  2.5967907063170106e-02  2.5055023931835563e-02  2.3811333372895961e-02  2.2275808258914821e-02  2.0493565316077943e-02  1.8512542485735119e-02  1.638015276075260