<?xml version="1.0"?>
<VTKFile type="UnstructuredGrid"  version="0.1"  >
<UnstructuredGrid>
<Piece  NumberOfPoints="961" NumberOfCells="1800">
<Points>
<DataArray  type="Float64"  NumberOfComponents="3"  format="ascii">-2 -2 0  -1.866666666666667 -2 0  -1.733333333333333 -2 0  -1.6 -2 0  -1.466666666666667 -2 0  -1.333333333333333 -2 0  -1.2 -2 0  -1.066666666666667 -2 0  -0.9333333333333333 -2 0  -0.8 -2 0  -0.6666666666666667 -2 0  -0.5333333333333334 -2 0  -0.3999999999999999 -2 0  -0.2666666666666666 -2 0  -0.1333333333333333 -2 0  0 -2 0  0.1333333333333333 -2 0  0.2666666666666666 -2 0  0.3999999999999999 -2 0  0.5333333333333332 -2 0  0.6666666666666665 -2 0  0.7999999999999998 -2 0  0.9333333333333331 -2 0  1.066666666666667 -2 0  1.2 -2 0  1.333333333333333 -2 0  1.466666666666667 -2 0  1.6 -2 0  1.733333333333333 -2 0  1.866666666666667 -2 0  2 -2 0  -2 -1.866666666666667 0  -1.866666666666667 -1.866666666666667 0  -1.733333333333333 -1.866666666666667 0  -1.6 -1.866666666666667 0  -1.466666666666667 -1.866666666666667 0  -1.333333333333333 -1.866666666666667 0  -1.2 -1.866666666666667 0  -1.066666666666667 -1.866666666666667 0  -0.9333333333333333 -1.866666666666667 0  -0.8 -1.866666666666667 0  -0.6666666666666667 -1.866666666666667 0  -0.5333333333333334 -1.866666666666667 0  -0.3999999999999999 -1.866666666666667 0  -0.2666666666666666 -1.866666666666667 0  -0.1333333333333333 -1.866666666666667 0  0 -1.866666666666667 0  0.1333333333333333 -1.866666666666667 0  0.2666666666666666 -1.866666666666667 0  0.3999999999999999 -1.866666666666667 0  0.5333333333333332 -1.866666666666667 0  0.6666666666666665 -1.866666666666667 0  0.7999999999999998 -1.866666666666667 0  0.9333333333333331 -1.866666666666667 0  1.066666666666667 -1.866666666666667 0  1.2 -1.866666666666667 0  1.333333333333333 -1.866666666666667 0  1.466666666666667 -1.866666666666667 0  1.6 -1.866666666666667 0  1.733333333333333 -1.866666666666667 0  1.866666666666667 -1.866666666666667 0  2 -1.866666666666667 0  -2 -1.733333333333333 0  -1.866666666666667 -1.733333333333333 0  -1.733333333333333 -1.733333333333333 0  -1.6 -1.733333333333333 0  -1.466666666666667 -1.733333333333333 0  -1.333333333333333 -1.733333333333333 0  -1.2 -1.733333333333333 0  -1.066666666666667 -1.733333333333333 0  -0.9333333333333333 -1.733333333333333 0  -0.8 -1.733333333333333 0  -0.6666666666666667 -1.733333333333333 0  -0.5333333333333334 -1.733333333333333 0  -0.3999999999999999 -1.733333333333333 0  -0.2666666666666666 -1.733333333333333 0  -0.1333333333333333 -1.733333333333333 0  0 -1.733333333333333 0  0.1333333333333333 -1.733333333333333 0  0.2666666666666666 -1.733333333333333 0  0.3999999999999999 -1.733333333333333 0  0.5333333333333332 -1.733333333333333 0  0.6666666666666665 -1.733333333333333 0  0.7999999999999998 -1.733333333333333 0  0.9333333333333331 -1.733333333333333 0  1.066666666666667 -1.733333333333333 0  1.2 -1.733333333333333 0  1.333333333333333 -1.733333333333333 0  1.466666666666667 -1.733333333333333 0  1.6 -1.733333333333333 0  1.733333333333333 -1.733333333333333 0  1.866666666666667 -1.733333333333333 0  2 -1.733333333333333 0  -2 -1.6 0  -1.866666666666667 -1.6 0  -1.733333333333333 -1.6 0  -1.6 -1.6 0  -1.466666666666667 -1.6 0  -1.333333333333333 -1.6 0  -1.2 -1.6 0  -1.066666666666667 -1.6 0  -0.9333333333333333 -1.6 0  -0.8 -1.6 0  -0.6666666666666667 -1.6 0  -0.5333333333333334 -1.6 0  -0.3999999999999999 -1.6 0  -0.2666666666666666 -1.6 0  -0.1333333333333333 -1.6 0  0 -1.6 0  0.1333333333333333 -1.6 0  0.2666666666666666 -1.6 0  0.3999999999999999 -1.6 0  0.5333333333333332 -1.6 0  0.6666666666666665 -1.6 0  0.7999999999999998 -1.6 0  0.9333333333333331 -1.6 0  1.066666666666667 -1.6 0  1.2 -1.6 0  1.333333333333333 -1.6 0  1.466666666666667 -1.6 0  1.6 -1.6 0  1.733333333333333 -1.6 0  1.866666666666667 -1.6 0  2 -1.6 0  -2 -1.466666666666667 0  -1.866666666666667 -1.466666666666667 0  -1.733333333333333 -1.466666666666667 0  -1.6 -1.466666666666667 0  -1.466666666666667 -1.466666666666667 0  -1.333333333333333 -1.466666666666667 0  -1.2 -1.466666666666667 0  -1.066666666666667 -1.466666666666667 0  -0.9333333333333333 -1.466666666666667 0  -0.8 -1.466666666666667 0  -0.6666666666666667 -1.466666666666667 0  -0.5333333333333334 -1.466666666666667 0  -0.3999999999999999 -1.466666666666667 0  -0.2666666666666666 -1.466666666666667 0  -0.1333333333333333 -1.466666666666667 0  0 -1.466666666666667 0  0.1333333333333333 -1.466666666666667 0  0.2666666666666666 -1.466666666666667 0  0.3999999999999999 -1.466666666666667 0  0.5333333333333332 -1.466666666666667 0  0.6666666666666665 -1.466666666666667 0  0.7999999999999998 -1.466666666666667 0  0.9333333333333331 -1.466666666666667 0  1.066666666666667 -1.466666666666667 0  1.2 -1.466666666666667 0  1.333333333333333 -1.466666666666667 0  1.466666666666667 -1.466666666666667 0  1.6 -1.466666666666667 0  1.733333333333333 -1.466666666666667 0  1.866666666666667 -1.466666666666667 0  2 -1.466666666666667 0  -2 -1.333333333333333 0  -1.866666666666667 -1.333333333333333 0  -1.733333333333333 -1.333333333333333 0  -1.6 -1.333333333333333 0  -1.466666666666667 -1.333333333333333 0  -1.333333333333333 -1.333333333333333 0  -1.2 -1.333333333333333 0  -1.066666666666667 -1.333333333333333 0  -0.9333333333333333 -1.333333333333333 0  -0.8 -1.333333333333333 0  -0.6666666666666667 -1.333333333333333 0  -0.5333333333333334 -1.333333333333333 0  -0.3999999999999999 -1.333333333333333 0  -0.2666666666666666 -1.333333333333333 0  -0.1333333333333333 -1.333333333333333 0  0 -1.333333333333333 0  0.1333333333333333 -1.333333333333333 0  0.2666666666666666 -1.333333333333333 0  0.3999999999999999 -1.333333333333333 0  0.5333333333333332 -1.333333333333333 0  0.6666666666666665 -1.333333333333333 0  0.7999999999999998 -1.333333333333333 0  0.9333333333333331 -1.333333333333333 0  1.066666666666667 -1.333333333333333 0  1.2 -1.333333333333333 0  1.333333333333333 -1.333333333333333 0  1.466666666666667 -1.333333333333333 0  1.6 -1.333333333333333 0  1.733333333333333 -1.333333333333333 0  1.866666666666667 -1.333333333333333 0  2 -1.333333333333333 0  -2 -1.2 0  -1.866666666666667 -1.2 0  -1.733333333333333 -1.2 0  -1.6 -1.2 0  -1.466666666666667 -1.2 0  -1.333333333333333 -1.2 0  -1.2 -1.2 0  -1.066666666666667 -1.2 0  -0.9333333333333333 -1.2 0  -0.8 -1.2 0  -0.6666666666666667 -1.2 0  -0.5333333333333334 -1.2 0  -0.3999999999999999 -1.2 0  -0.2666666666666666 -1.2 0  -0.1333333333333333 -1.2 0  0 -1.2 0  0.1333333333333333 -1.2 0  0.2666666666666666 -1.2 0  0.3999999999999999 -1.2 0  0.5333333333333332 -1.2 0  0.6666666666666665 -1.2 0  0.7999999999999998 -1.2 0  0.9333333333333331 -1.2 0  1.066666666666667 -1.2 0  1.2 -1.2 0  1.333333333333333 -1.2 0  1.466666666666667 -1.2 0  1.6 -1.2 0  1.733333333333333 -1.2 0  1.866666666666667 -1.2 0  2 -1.2 0  -2 -1.066666666666667 0  -1.866666666666667 -1.066666666666667 0  -1.733333333333333 -1.066666666666667 0  -1.6 -1.066666666666667 0  -1.466666666666667 -1.066666666666667 0  -1.333333333333333 -1.066666666666667 0  -1.2 -1.066666666666667 0  -1.066666666666667 -1.066666666666667 0  -0.9333333333333333 -1.066666666666667 0  -0.8 -1.066666666666667 0  -0.6666666666666667 -1.066666666666667 0  -0.5333333333333334 -1.066666666666667 0  -0.3999999999999999 -1.066666666666667 0  -0.2666666666666666 -1.066666666666667 0  -0.1333333333333333 -1.066666666666667 0  0 -1.066666666666667 0  0.1333333333333333 -1.066666666666667 0  0.2666666666666666 -1.066666666666667 0  0.3999999999999999 -1.066666666666667 0  0.5333333333333332 -1.066666666666667 0  0.6666666666666665 -1.066666666666667 0  0.7999999999999998 -1.066666666666667 0  0.9333333333333331 -1.066666666666667 0  1.066666666666667 -1.066666666666667 0  1.2 -1.066666666666667 0  1.333333333333333 -1.066666666666667 0  1.466666666666667 -1.066666666666667 0  1.6 -1.066666666666667 0  1.733333333333333 -1.066666666666667 0  1.866666666666667 -1.066666666666667 0  2 -1.066666666666667 0  -2 -0.9333333333333333 0  -1.866666666666667 -0.9333333333333333 0  -1.733333333333333 -0.9333333333333333 0  -1.6 -0.9333333333333333 0  -1.466666666666667 -0.9333333333333333 0  -1.333333333333333 -0.9333333333333333 0  -1.2 -0.9333333333333333 0  -1.066666666666667 -0.9333333333333333 0  -0.9333333333333333 -0.9333333333333333 0  -0.8 -0.9333333333333333 0  -0.6666666666666667 -0.9333333333333333 0  -0.5333333333333334 -0.9333333333333333 0  -0.3999999999999999 -0.9333333333333333 0  -0.2666666666666666 -0.9333333333333333 0  -0.1333333333333333 -0.9333333333333333 0  0 -0.9333333333333333 0  0.1333333333333333 -0.9333333333333333 0  0.2666666666666666 -0.9333333333333333 0  0.3999999999999999 -0.9333333333333333 0  0.5333333333333332 -0.9333333333333333 0  0.6666666666666665 -0.9333333333333333 0  0.7999999999999998 -0.9333333333333333 0  0.9333333333333331 -0.9333333333333333 0  1.066666666666667 -0.9333333333333333 0  1.2 -0.9333333333333333 0  1.333333333333333 -0.9333333333333333 0  1.466666666666667 -0.9333333333333333 0  1.6 -0.9333333333333333 0  1.733333333333333 -0.9333333333333333 0  1.866666666666667 -0.9333333333333333 0  2 -0.9333333333333333 0  -2 -0.8 0  -1.866666666666667 -0.8 0  -1.733333333333333 -0.8 0  -1.6 -0.8 0  -1.466666666666667 -0.8 0  -1.333333333333333 -0.8 0  -1.2 -0.8 0  -1.066666666666667 -0.8 0  -0.9333333333333333 -0.8 0  -0.8 -0.8 0  -0.6666666666666667 -0.8 0  -0.5333333333333334 -0.8 0  -0.3999999999999999 -0.8 0  -0.2666666666666666 -0.8 0  -0.1333333333333333 -0.8 0  0 -0.8 0  0.1333333333333333 -0.8 0  0.2666666666666666 -0.8 0  0.3999999999999999 -0.8 0  0.5333333333333332 -0.8 0  0.6666666666666665 -0.8 0  0.7999999999999998 -0.8 0  0.9333333333333331 -0.8 0  1.066666666666667 -0.8 0  1.2 -0.8 0  1.333333333333333 -0.8 0  1.466666666666667 -0.8 0  1.6 -0.8 0  1.733333333333333 -0.8 0  1.866666666666667 -0.8 0  2 -0.8 0  -2 -0.6666666666666667 0  -1.866666666666667 -0.
[...]
<PointData  Scalars="f_468"> 
<DataArray  type="Float64"  Name="f_468"  format="ascii">0.0000000000000000e+00  0.0000000000000000e+00  0.0000000000000000e+00  0.0000000000000000e+00  0.0000000000000000e+00  0.0000000000000000e+00  0.0000000000000000e+00  0.0000000000000000e+00  0.0000000000000000e+00  0.0000000000000000e+00  0.0000000000000000e+00  0.0000000000000000e+00  0.0000000000000000e+00  0.0000000000000000e+00  0.0000000000000000e+00  0.0000000000000000e+00  0.0000000000000000e+00  0.0000000000000000e+00  0.0000000000000000e+00  0.0000000000000000e+00  0.0000000000000000e+00  0.0000000000000000e+00  0.0000000000000000e+00  0.0000000000000000e+00  0.0000000000000000e+00  0.0000000000000000e+00  0.0000000000000000e+00  0.0000000000000000e+00  0.0000000000000000e+00  0.0000000000000000e+00  0.0000000000000000e+00  0.0000000000000000e+00  3.2143864403798083e-04  6.3890717398550154e-04  9.4925558633026893e-04  1.2492708302652661e-03  1.5357751948725581e-03  1.8056818412563490e-03  2.0560377342271207e-03  2.2840630911845532e-03  2.4871899675306662e-03  2.6631002661791849e-03  2.8097624647596933e-03  2.9254658844991089e-03  3.0088511304509889e-03  3.0589353294316140e-03  3.0751309418167875e-03  3.0572571975424701e-03  3.0055435741593566e-03  2.9206251597914674e-03  2.8035301871220321e-03  2.6556604465082620e-03  2.4787656509213892e-03  2.2749131042432745e-03  2.0464542016789436e-03  1.7959893701637731e-03  1.5263330742039819e-03  1.2404805747971938e-03  9.4157852574143952e-04  6.3290308417619703e-04  3.1785485146199104e-04  0.0000000000000000e+00  0.0000000000000000e+00  6.3890717398550154e-04  1.2702676848228641e-03  1.8875922888542287e-03  2.4844186830638810e-03  3.0544000379891236e-03  3.5913851672119928e-03  4.0894944760268229e-03  4.5431951369209892e-03  4.9473765533615544e-03  5.2974254093594896e-03  5.5892984713007124e-03  5.8195906445655367e-03  5.9855954941441447e-03  6.0853554660808698e-03  6.1176993575430853e-03  6.0822651336454436e-03  5.9795069220054111e-03  5.8106858620607087e-03  5.5778453681288916e-03  5.2837722043086056e-03  4.9319454930979089e-03  4.5264763296186741e-03  4.0720410131445612e-03  3.5738110312002920e-03  3.0373828743025045e-03  2.4687106166255504e-03  1.8740441538868146e-03  1.2598763331149840e-03  6.3290308417619703e-04  0.0000000000000000e+00  0.0000000000000000e+00  9.4925558633026947e-04  1.8875922888542296e-03  2.8052196840001155e-03  3.6924620983051736e-03  4.5398511263058418e-03  5.3382254601587733e-03  6.0788350078209335e-03  6.7534486473324181e-03  7.3544645213557153e-03  7.8750206748723107e-03  8.3091028146155266e-03  8.6516452577648315e-03  8.8986208179628046e-03  9.0471154676685407e-03  9.0953840996080941e-03  9.0428845373547815e-03  8.8902880383041616e-03  8.6394657915105678e-03  8.2934522242379821e-03  7.8563871775969279e-03  7.3334400843193120e-03  6.7307200906907552e-03  6.0551765488534729e-03  5.3144944403015777e-03  4.5169890915388042e-03  3.6715040590052156e-03  2.7873153490707171e-03  1.8740441538868142e-03  9.4157852574143963e-04  0.0000000000000000e+00  0.0000000000000000e+00  1.2492708302652665e-03  2.4844186830638819e-03  3.6924620983051740e-03  4.8606058217927290e-03  5.9763505276526673e-03  7.0276145431378799e-03  8.0028649137996125e-03  8.8912558393211411e-03  9.6827719713535078e-03  1.0368373014170517e-02  1.0940135018103923e-02  1.1391382991025788e-02  1.1716809122419371e-02  1.1912571079299841e-02  1.1976365491907892e-02  1.1907472846455831e-02  1.1706771446118232e-02  1.1376719761223475e-02  1.0921308216601056e-02  1.0345983104139391e-02  9.6575467170976672e-03  8.8640388583163775e-03  7.9746054908635764e-03  6.9993604327285635e-03  5.9492456455144645e-03  4.8358948609950186e-03  3.6715040590052147e-03  2.4687106166255504e-03  1.2404805747971938e-03  0.0000000000000000e+00  0.0000000000000000e+00  1.5357751948725594e-03  3.0544000379891258e-03  4.5398511263058444e-03  5.9763505276526734e-03  7.3484979108761634e-03  8.6414160278480579e-03  9.8409083775618522e-03  1.0933626984869852e-02  1.1907247020052629e-02  1.2750643625360197e-02  1.3454065080434298e-02  1.4009295564227177e-02  1.4409800411273000e-02  1.4650846990966039e-02  1.4729595163886305e-02  1.4645152628931485e-02  1.4398592254364172e-02  1.3992930528636803e-02  1.3433068391160720e-02  1.2725697719457939e-02  1.1879178478444229e-02  1.0903392828714898e-02  9.8095832339616662e-03  8.6101817436178424e-03  7.3186371479239442e-03  5.9492456455144619e-03  4.5169890915388016e-03  3.0373828743025040e-03  1.5263330742039814e-03  0.0000000000000000e+00  0.0000000000000000e+00  1.8056818412563510e-03  3.5913851672119967e-03  5.3382254601587794e-03  7.0276145431378886e-03  8.6414160278480649e-03  1.0162114853937367e-02  1.1573000865879401e-02  1.2858364548340910e-02  1.4003701204839273e-02  1.4995918101861143e-02  1.5823537607280912e-02  1.6476888325692343e-02  1.6948275822175955e-02  1.7232124807985780e-02  1.7325085639062380e-02  1.7226099580993928e-02  1.6936419388440344e-02  1.6459584150392368e-02  1.5801349851594697e-02  1.4969579472010979e-02  1.3974098479308012e-02  1.2826523085041161e-02  1.1540069503203942e-02  1.0129352599422232e-02  8.6101817436178354e-03  6.9993604327285592e-03  5.3144944403015716e-03  3.5738110312002894e-03  1.7959893701637731e-03  0.0000000000000000e+00  0.0000000000000000e+00  2.0560377342271246e-03  4.0894944760268325e-03  6.0788350078209456e-03  8.0028649137996281e-03  9.8409083775618678e-03  1.1573000865879415e-02  1.3180097319508751e-02  1.4644294131140878e-02  1.5949060875837966e-02  1.7079475621027167e-02  1.8022455880377476e-02  1.8766976082378362e-02  1.9304261947912408e-02  1.9627952489741776e-02  1.9734221459027871e-02  1.9621851888608131e-02  1.9292259767565927e-02  1.8749465618846332e-02  1.8000015598479132e-02  1.7052856437320001e-02  1.5919170863443115e-02  1.4612181871209476e-02  1.3146935193086044e-02  1.1540069503203942e-02  9.8095832339616679e-03  7.9746054908635764e-03  6.0551765488534711e-03  4.0720410131445612e-03  2.0464542016789436e-03  0.0000000000000000e+00  0.0000000000000000e+00  2.2840630911845593e-03  4.5431951369210005e-03  6.7534486473324390e-03  8.8912558393211619e-03  1.0933626984869875e-02  1.2858364548340934e-02  1.4644294131140882e-02  1.6271510580395169e-02  1.7721634947492227e-02  1.8978075526049305e-02  2.0026284188348203e-02  2.0853997883117072e-02  2.1451454611134166e-02  2.1811573539193732e-02  2.1930090142389367e-02  2.1805639287797600e-02  2.1439781819930479e-02  2.0836973248833462e-02  2.0004476305654367e-02  1.8952222135542148e-02  1.7692627476278242e-02  1.6240377096115092e-02  1.4612181871209483e-02  1.2826523085041168e-02  1.0903392828714902e-02  8.8640388583163827e-03  6.7307200906907578e-03  4.5264763296186767e-03  2.2749131042432750e-03  0.0000000000000000e+00  0.0000000000000000e+00  2.4871899675306744e-03  4.9473765533615691e-03  7.3544645213557396e-03  9.6827719713535321e-03  1.1907247020052655e-02  1.4003701204839302e-02  1.5949060875837976e-02  1.7721634947492231e-02  1.9301394436224615e-02  2.0670256492390626e-02  2.1812363408943779e-02  2.2714345585679401e-02  2.3365556814149264e-02  2.3758270609844992e-02  2.3887827647770355e-02  2.3752726554368133e-02  2.3354653187934015e-02  2.2698446849542708e-02  2.1792005313276828e-02  2.0646133840581143e-02  1.9274346157316304e-02  1.7692627476278259e-02  1.5919170863443129e-02  1.3974098479308040e-02  1.1879178478444243e-02  9.6575467170976828e-03  7.3334400843193233e-03  4.9319454930979159e-03  2.4787656509213927e-03  0.0000000000000000e+00  0.0000000000000000e+00  2.6631002661791944e-03  5.2974254093595078e-03  7.8750206748723420e-03  1.0368373014170554e-02  1.2750643625360237e-02  1.4995918101861185e-02  1.7079475621027192e-02  1.8978075526049326e-02  2.0670256492390644e-02  2.2136640537877245e-02  2.3360231728705817e-02  2.4326697802536174e-02  2.5024622255129674e-02  2.5445714810150198e-02  2.5584969604660727e-02  2.5440762767503129e-02  2.5014884146003159e-02  2.4312501478904062e-02  2.3342059005420034e-02  2.2115116012316732e-02  2.0646133840581147e-02  1.8952222135542172e-02  1.7052856437320029e-02  1.4969579472011012e-02  1.2725697719457954e-02  1.0345983104139408e-02  7.8563871775969470e-03  5.2837722043086177e-03  2.6556604465082672e-03  0.0000000000000000e+00  0.0000000000000000e+00  2.8097624647597046e-03  5.5892984713007375e-03  8.3091028146155630e-03  1.0940135018103972e-02  1.3454065080434350e-02  1.5823537607280964e-02  1.8022455880377521e-02  2.0026284188348255e-02  2.1812363408943804e-02  2.3360231728705827e-02  2.4651939831528448e-02  2.5672348150338354e-02  2.6409393048820822e-02  2.6854309180319436e-02  2.7001796750723159e-02  2.6850124877720181e-02  2.6401165481459463e-02  2.5660355877358845e-02  2.4636592138544175e-02  2.3342059005420052e-02  2.1792005313276838e-02  2.0004476305654426e-02  1.8000015598479170e-02  1.5801349851594745e-02  1.3433068391160751e-02  1.0921308216601077e-02  8.2934522242379943e-03  5.5778453681289055e-03  2.8035301871220382e-03  0.0000000000000000e+00  0.0000000000000000e+00  2.9254658844991236e-03  5.8195906445655645e-03  8.6516452577648732e-03  1.1391382991025847e-02  1.4009295564227250e-02  1.6476888325692413e-02  1.8766976082378414e-02  2.0853997883117117e-02  2.2714345585679422e-02  2.4326697802536188e-02  2.5672348150338364e-02  2.6735514906521443e-02  2.7503618405705293e-02  2.7967512891691783e-02  2.8121661070530341e-02  2.7964242168777138e-02  2.7497187671861899e-02  2.6726142804957005e-02  2.5660355877358848e-02  2.4312501478904069e-02  2.2698446849542708e-02  2.0836973248833494e-02  1.8749465618846370e-02  1.6459584150392403e-02  1.3992930528636817e-02  1.1376719761223493e-02  8.6394657915105765e-03  5.8106858620607174e-03  2.9206251597914718e-03  0.0000000000000000e+00  0.0000000000000000e+00  3.0088511304510097e-03  5.9855954941441837e-03  8.8986208179628584e-03  1.1716809122419446e-02  1.4409800411273092e-02  1.6948275822176069e-02  1.9304261947912498e-02  2.1451454611134242e-02  2.3365556814149330e-02  2.5024622255129712e-02  2.6409393048820885e-02  2.7503618405705352e-02  2.8294340218835343e-02  2.8772131889628301e-02  2.8931278286496352e-02  2.8769887353306139e-02  2.8289927346003812e-02  2.7497187671861927e-02  2.6401165481459484e-02  2.5014884146003179e-02  2.3354653187934036e-02  2.1439781819930524e-02  1.9292259767565975e-02  1.6936419388440389e-02  1.4398592254364200e-02  1.1706771446118260e-02  8.8902880383041755e-03  5.9795069220054215e-03  3.0055435741593623e-03  0.0000000000000000e+00  0.0000000000000000e+00  3.0589353294316370e-03  6.0853554660809149e-03  9.0471154676686084e-03  1.1912571079299930e-02  1.4650846990966157e-02  1.7232124807985898e-02  1.9627952489741897e-02  2.1811573539193843e-02  2.3758270609845100e-02  2.5445714810150285e-02  2.6854309180319526e-02  2.7967512891691883e-02  2.8772131889628370e-02  2.9258562077900022e-02  2.9420972720691108e-02  2.9257420396713918e-02  2.8769887353306167e-02  2.7964242168777166e-02  2.6850124877720174e-02  2.5440762767503140e-02  2.3752726554368150e-02  2.1805639287797642e-02  1.9621851888608176e-02  1.7226099580993966e-02  1.4645152628931514e-02  1.1907472846455861e-02  9.0428845373548093e-03  6.0822651336454574e-03  3.0572571975424753e-03  0.0000000000000000e+00  0.0000000000000000e+00  3.0751309418168126e-03  6.1176993575431339e-03  9.0953840996081652e-03  1.1976365491907993e-02  1.4729595163886427e-02  1.7325085639062515e-02  1.9734221459028020e-02  2.1930090142389509e-02  2.3887827647770477e-02  2.5584969604660848e-02  2.7001796750723284e-02  2.8121661070530466e-02  2.8931278286496460e-02  2.9420972720691146e-02  2.9584862122439905e-02  2.9420972720691108e-02  2.8931278286496383e-02  2.8121661070530372e-02  2.7001796750723193e-02  2.5584969604660744e-02  2.3887827647770379e-02  2.1930090142389416e-02  1.9734221459027920e-02  1.7325085639062425e-02  1.4729595163886331e-02  1.1976365491907920e-02  9.0953840996081097e-03  6.1176993575430948e-03  3.0751309418167931e-03  0.0000000000000000e+00  0.0000000000000000e+00  3.0572571975424965e-03  6.0822651336454991e-03  9.0428845373548648e-03  1.1907472846455937e-02  1.4645152628931611e-02  1.7226099580994067e-02  1.9621851888608283e-02  2.1805639287797753e-02  2.3752726554368279e-02  2.5440762767503275e-02  2.6850124877720330e-02  2.7964242168777294e-02  2.8769887353306281e-02  2.9257420396713991e-02  2.9420972720691139e-02  2.9258562077900022e-02  2.8772131889628325e-02  2.7967512891691804e-02  2.6854309180319436e-02  2.5445714810150209e-02  2.3758270609845013e-02  2.1811573539193781e-02  1.9627952489741831e-02  1.7232124807985826e-02  1.4650846990966068e-02  1.1912571079299864e-02  9.0471154676685546e-03  6.0853554660808802e-03  3.0589353294316187e-03  0.0000000000000000e+00  0.0000000000000000e+00  3.0055435741593839e-03  5.9795069220054632e-03  8.8902880383042397e-03  1.1706771446118345e-02  1.4398592254364299e-02  1.6936419388440500e-02  1.9292259767566093e-02  2.1439781819930653e-02  2.3354653187934182e-02  2.5014884146003325e-02  2.6401165481459630e-02  2.7497187671862090e-02  2.8289927346003968e-02  2.8769887353306281e-02  2.8931278286496439e-02  2.8772131889628339e-02  2.8294340218835347e-02  2.7503618405705296e-02  2.6409393048820826e-02  2.5024622255129681e-02  2.3365556814149285e-02  2.1451454611134201e-02  1.9304261947912453e-02  1.6948275822176000e-02  1.4409800411273021e-02  1.1716809122419394e-02  8.8986208179628167e-03  5.9855954941441525e-03  3.0088511304509932e-03  0.0000000000000000e+00  0.0000000000000000e+00  2.9206251597914956e-03  5.8106858620607669e-03  8.6394657915106511e-03  1.1376719761223586e-02  1.3992930528636933e-02  1.6459584150392524e-02  1.8749465618846488e-02  2.0836973248833626e-02  2.2698446849542867e-02  2.4312501478904232e-02  2.5660355877359032e-02  2.6726142804957203e-02  2.7497187671862079e-02  2.7964242168777294e-02  2.8121661070530463e-02  2.7967512891691870e-02  2.7503618405705327e-02  2.6735514906521426e-02  2.5672348150338344e-02  2.4326697802536167e-02  2.2714345585679398e-02  2.0853997883117092e-02  1.8766976082378387e-02  1.6476888325692364e-02  1.4009295564227192e-02  1.1391382991025802e-02  8.6516452577648402e-03  5.8195906445655419e-03  2.9254658844991110e-03  0.0000000000000000e+00  0.0000000000000000e+00  2.8035301871220607e-03  5.5778453681289506e-03  8.2934522242380671e-03  1.0921308216601172e-02  1.3433068391160851e-02  1.5801349851594849e-02  1.8000015598479295e-02  2.0004476305654550e-02  2.1792005313276987e-02  2.3342059005420204e-02  2.4636592138544355e-02  2.5660355877359042e-02  2.6401165481459661e-02  2.6850124877720333e-02  2.7001796750723304e-02  2.6854309180319523e-02  2.6409393048820881e-02  2.5672348150338368e-02  2.4651939831528441e-02  2.3360231728705792e-02  2.1812363408943786e-02  2.0026284188348221e-02  1.8022455880377500e-02  1.5823537607280915e-02  1.3454065080434294e-02  1.0940135018103918e-02  8.3091028146155231e-03  5.5892984713007115e-03  2.8097624647596933e-03  0.0000000000000000e+00  0.0000000000000000e+00  2.6556604465082902e-03  5.2837722043086637e-03  7.8563871775970164e-03  1.0345983104139504e-02  1.2725697719458076e-02  1.4969579472011130e-02  1.7052856437320154e-02  1.8952222135542311e-02  2.0646133840581310e-02  2.2115116012316905e-02  2.3342059005420225e-02  2.4312501478904264e-02  2.5014884146003381e-02  2.5440762767503310e-02  2.5584969604660879e-02  2.5445714810150327e-02  2.5024622255129771e-02  2.4326697802536230e-02  2.3360231728705837e-02  2.2136640537877259e-02  2.0670256492390640e-02  1.8978075526049316e-02  1.7079475621027195e-02  1.4995918101861162e-02  1.2750643625360193e-02  1.0368373014170517e-02  7.8750206748723142e-03  5.2974254093594905e-03  2.6631002661791849e-03  0.0000000000000000e+00  0.0000000000000000e+00  2.4787656509214161e-03  4.9319454930979662e-03  7.3334400843193979e-03  9.6575467170977747e-03  1.1879178478444361e-02  1.3974098479308156e-02  1.5919170863443272e-02  1.7692627476278394e-02  1.9274346157316463e-02  2.0646133840581313e-02  2.1792005313277012e-02  2.2698446849542902e-02  2.3354653187934234e-02  2.3752726554368345e-02  2.3887827647770532e-02  2.3758270609845155e-02  2.3365556814149396e-02  2.2714345585679481e-02  2.1812363408943849e-02  2.0670256492390678e-02  1.9301394436224646e-02  1.7721634947492248e-02  1.5949060875837990e-02  1.4003701204839299e-02  1.1907247020052638e-02  9.6827719713535113e-03  7.3544645213557205e-03  4.9473765533615578e-03  2.4871899675306688e-03  0.0000000000000000e+00  0.0000000000000000e+00  2.2749131042432993e-03  4.5264763296187244e-03  6.7307200906908315e-03  8.8640388583164729e-03  1.0903392828715006e-02  1.2826523085041288e-02  1.4612181871209606e-02  1.6240377096115224e-02  1.7692627476278405e-02  1.8952222135542322e-02  2.0004476305654561e-02  2.0836973248833653e-02  2.1439781819930691e-02  2.1805639287797798e-02  2.1930090142389547e-02  2.1811573539193895e-02  2.1451454611134301e-02  2.0853997883117172e-02  2.0026284188348290e-02  1.8978075526049364e-02  1.7721634947492269e-02  1.6271510580395193e-02  1.4644294131140888e-02  1.2858364548340932e-02  1.0933626984869866e-02  8.8912558393211480e-03  6.7534486473324259e-03  4.5431951369209952e-03  2.2840630911845571e-03  0.0000000000000000e+00  0.0000000000000000e+00  2.0464542016789648e-03  4.0720410131446037e-03  6.0551765488535336e-03  7.9746054908636579e-03  9.8095832339617651e-03  1.1540069503204046e-02  1.3146935193086143e-02  1.4612181871209584e-02  1.5919170863443254e-02  1.7052856437320150e-02  1.8000015598479299e-02  1.8749465618846512e-02  1.9292259767566117e-02  1.9621851888608311e-02  1.9734221459028034e-02  1.9627952489741925e-02  1.9304261947912529e-02  1.8766976082378452e-02  1.8022455880377541e-02  1.7079475621027226e-02  1.5949060875838011e-02  1.4644294131140901e-02  1.3180097319508763e-02  1.1573000865879415e-02  9.8409083775618592e-03  8.0028649137996195e-03  6.0788350078209361e-03  4.0894944760268264e-03  2.0560377342271228e-03  0.0000000000000000e+00  0.0000000000000000e+00  1.7959893701637918e-03  3.5738110312003267e-03  5.3144944403016288e-03  6.9993604327286329e-03  8.6101817436179309e-03  1.0129352599422327e-02  1.1540069503204034e-02  1.2826523085041262e-02  1.3974098479308144e-02  1.4969579472011125e-02  1.5801349851594849e-02  1.6459584150392535e-02  1.6936419388440527e-02  1.7226099580994084e-02  1.7325085639062522e-02  1.7232124807985916e-02  1.6948275822176086e-02  1.6476888325692433e-02  1.5823537607280964e-02  1.4995918101861202e-02  1.4003701204839330e-02  1.2858364548340951e-02  1.1573000865879427e-02  1.0162114853937369e-02  8.6414160278480614e-03  7.0276145431378816e-03  5.3382254601587759e-03  3.5913851672119937e-03  1.8056818412563495e-03  0.0000000000000000e+00  0.0000000000000000e+00  1.5263330742039973e-03  3.0373828743025348e-03  4.5169890915388493e-03  5.9492456455145235e-03  7.3186371479240196e-03  8.6101817436179204e-03  9.8095832339617495e-03  1.0903392828714990e-02  1.1879178478444342e-02  1.2725697719458062e-02  1.3433068391160855e-02  1.3992930528636944e-02  1.4398592254364316e-02  1.4645152628931620e-02  1.4729595163886430e-02  1.4650846990966148e-02  1.4409800411273098e-02  1.4009295564227269e-02  1.3454065080434353e-02  1.2750643625360243e-02  1.1907247020052678e-02  1.0933626984869889e-02  9.8409083775618713e-03  8.6414160278480666e-03  7.3484979108761651e-03  5.9763505276526673e-03  4.5398511263058418e-03  3.0544000379891250e-03  1.5357751948725587e-03  0.0000000000000000e+00  0.0000000000000000e+00  1.2404805747972061e-03  2.4687106166255746e-03  3.6715040590052537e-03  4.8358948609950689e-03  5.9492456455145261e-03  6.9993604327286242e-03  7.9746054908636423e-03  8.8640388583164538e-03  9.6575467170977557e-03  1.0345983104139492e-02  1.0921308216601167e-02  1.1376719761223586e-02  1.1706771446118354e-02  1.1907472846455942e-02  1.1976365491907988e-02  1.1912571079299930e-02  1.1716809122419456e-02  1.1391382991025857e-02  1.0940135018103972e-02  1.0368373014170562e-02  9.6827719713535373e-03  8.8912558393211671e-03  8.002864913799633