<?xml version="1.0"?>
<VTKFile type="UnstructuredGrid"  version="0.1"  >
<UnstructuredGrid>
<Piece  NumberOfPoints="961" NumberOfCells="1800">
<Points>
<DataArray  type="Float64"  NumberOfComponents="3"  format="ascii">-2 -2 0  -1.866666666666667 -2 0  -1.733333333333333 -2 0  -1.6 -2 0  -1.466666666666667 -2 0  -1.333333333333333 -2 0  -1.2 -2 0  -1.066666666666667 -2 0  -0.9333333333333333 -2 0  -0.8 -2 0  -0.6666666666666667 -2 0  -0.5333333333333334 -2 0  -0.3999999999999999 -2 0  -0.2666666666666666 -2 0  -0.1333333333333333 -2 0  0 -2 0  0.1333333333333333 -2 0  0.2666666666666666 -2 0  0.3999999999999999 -2 0  0.5333333333333332 -2 0  0.6666666666666665 -2 0  0.7999999999999998 -2 0  0.9333333333333331 -2 0  1.066666666666667 -2 0  1.2 -2 0  1.333333333333333 -2 0  1.466666666666667 -2 0  1.6 -2 0  1.733333333333333 -2 0  1.866666666666667 -2 0  2 -2 0  -2 -1.866666666666667 0  -1.866666666666667 -1.866666666666667 0  -1.733333333333333 -1.866666666666667 0  -1.6 -1.866666666666667 0  -1.466666666666667 -1.866666666666667 0  -1.333333333333333 -1.866666666666667 0  -1.2 -1.866666666666667 0  -1.066666666666667 -1.866666666666667 0  -0.9333333333333333 -1.866666666666667 0  -0.8 -1.866666666666667 0  -0.6666666666666667 -1.866666666666667 0  -0.5333333333333334 -1.866666666666667 0  -0.3999999999999999 -1.866666666666667 0  -0.2666666666666666 -1.866666666666667 0  -0.1333333333333333 -1.866666666666667 0  0 -1.866666666666667 0  0.1333333333333333 -1.866666666666667 0  0.2666666666666666 -1.866666666666667 0  0.3999999999999999 -1.866666666666667 0  0.5333333333333332 -1.866666666666667 0  0.6666666666666665 -1.866666666666667 0  0.7999999999999998 -1.866666666666667 0  0.9333333333333331 -1.866666666666667 0  1.066666666666667 -1.866666666666667 0  1.2 -1.866666666666667 0  1.333333333333333 -1.866666666666667 0  1.466666666666667 -1.866666666666667 0  1.6 -1.866666666666667 0  1.733333333333333 -1.866666666666667 0  1.866666666666667 -1.866666666666667 0  2 -1.866666666666667 0  -2 -1.733333333333333 0  -1.866666666666667 -1.733333333333333 0  -1.733333333333333 -1.733333333333333 0  -1.6 -1.733333333333333 0  -1.466666666666667 -1.733333333333333 0  -1.333333333333333 -1.733333333333333 0  -1.2 -1.733333333333333 0  -1.066666666666667 -1.733333333333333 0  -0.9333333333333333 -1.733333333333333 0  -0.8 -1.733333333333333 0  -0.6666666666666667 -1.733333333333333 0  -0.5333333333333334 -1.733333333333333 0  -0.3999999999999999 -1.733333333333333 0  -0.2666666666666666 -1.733333333333333 0  -0.1333333333333333 -1.733333333333333 0  0 -1.733333333333333 0  0.1333333333333333 -1.733333333333333 0  0.2666666666666666 -1.733333333333333 0  0.3999999999999999 -1.733333333333333 0  0.5333333333333332 -1.733333333333333 0  0.6666666666666665 -1.733333333333333 0  0.7999999999999998 -1.733333333333333 0  0.9333333333333331 -1.733333333333333 0  1.066666666666667 -1.733333333333333 0  1.2 -1.733333333333333 0  1.333333333333333 -1.733333333333333 0  1.466666666666667 -1.733333333333333 0  1.6 -1.733333333333333 0  1.733333333333333 -1.733333333333333 0  1.866666666666667 -1.733333333333333 0  2 -1.733333333333333 0  -2 -1.6 0  -1.866666666666667 -1.6 0  -1.733333333333333 -1.6 0  -1.6 -1.6 0  -1.466666666666667 -1.6 0  -1.333333333333333 -1.6 0  -1.2 -1.6 0  -1.066666666666667 -1.6 0  -0.9333333333333333 -1.6 0  -0.8 -1.6 0  -0.6666666666666667 -1.6 0  -0.5333333333333334 -1.6 0  -0.3999999999999999 -1.6 0  -0.2666666666666666 -1.6 0  -0.1333333333333333 -1.6 0  0 -1.6 0  0.1333333333333333 -1.6 0  0.2666666666666666 -1.6 0  0.3999999999999999 -1.6 0  0.5333333333333332 -1.6 0  0.6666666666666665 -1.6 0  0.7999999999999998 -1.6 0  0.9333333333333331 -1.6 0  1.066666666666667 -1.6 0  1.2 -1.6 0  1.333333333333333 -1.6 0  1.466666666666667 -1.6 0  1.6 -1.6 0  1.733333333333333 -1.6 0  1.866666666666667 -1.6 0  2 -1.6 0  -2 -1.466666666666667 0  -1.866666666666667 -1.466666666666667 0  -1.733333333333333 -1.466666666666667 0  -1.6 -1.466666666666667 0  -1.466666666666667 -1.466666666666667 0  -1.333333333333333 -1.466666666666667 0  -1.2 -1.466666666666667 0  -1.066666666666667 -1.466666666666667 0  -0.9333333333333333 -1.466666666666667 0  -0.8 -1.466666666666667 0  -0.6666666666666667 -1.466666666666667 0  -0.5333333333333334 -1.466666666666667 0  -0.3999999999999999 -1.466666666666667 0  -0.2666666666666666 -1.466666666666667 0  -0.1333333333333333 -1.466666666666667 0  0 -1.466666666666667 0  0.1333333333333333 -1.466666666666667 0  0.2666666666666666 -1.466666666666667 0  0.3999999999999999 -1.466666666666667 0  0.5333333333333332 -1.466666666666667 0  0.6666666666666665 -1.466666666666667 0  0.7999999999999998 -1.466666666666667 0  0.9333333333333331 -1.466666666666667 0  1.066666666666667 -1.466666666666667 0  1.2 -1.466666666666667 0  1.333333333333333 -1.466666666666667 0  1.466666666666667 -1.466666666666667 0  1.6 -1.466666666666667 0  1.733333333333333 -1.466666666666667 0  1.866666666666667 -1.466666666666667 0  2 -1.466666666666667 0  -2 -1.333333333333333 0  -1.866666666666667 -1.333333333333333 0  -1.733333333333333 -1.333333333333333 0  -1.6 -1.333333333333333 0  -1.466666666666667 -1.333333333333333 0  -1.333333333333333 -1.333333333333333 0  -1.2 -1.333333333333333 0  -1.066666666666667 -1.333333333333333 0  -0.9333333333333333 -1.333333333333333 0  -0.8 -1.333333333333333 0  -0.6666666666666667 -1.333333333333333 0  -0.5333333333333334 -1.333333333333333 0  -0.3999999999999999 -1.333333333333333 0  -0.2666666666666666 -1.333333333333333 0  -0.1333333333333333 -1.333333333333333 0  0 -1.333333333333333 0  0.1333333333333333 -1.333333333333333 0  0.2666666666666666 -1.333333333333333 0  0.3999999999999999 -1.333333333333333 0  0.5333333333333332 -1.333333333333333 0  0.6666666666666665 -1.333333333333333 0  0.7999999999999998 -1.333333333333333 0  0.9333333333333331 -1.333333333333333 0  1.066666666666667 -1.333333333333333 0  1.2 -1.333333333333333 0  1.333333333333333 -1.333333333333333 0  1.466666666666667 -1.333333333333333 0  1.6 -1.333333333333333 0  1.733333333333333 -1.333333333333333 0  1.866666666666667 -1.333333333333333 0  2 -1.333333333333333 0  -2 -1.2 0  -1.866666666666667 -1.2 0  -1.733333333333333 -1.2 0  -1.6 -1.2 0  -1.466666666666667 -1.2 0  -1.333333333333333 -1.2 0  -1.2 -1.2 0  -1.066666666666667 -1.2 0  -0.9333333333333333 -1.2 0  -0.8 -1.2 0  -0.6666666666666667 -1.2 0  -0.5333333333333334 -1.2 0  -0.3999999999999999 -1.2 0  -0.2666666666666666 -1.2 0  -0.1333333333333333 -1.2 0  0 -1.2 0  0.1333333333333333 -1.2 0  0.2666666666666666 -1.2 0  0.3999999999999999 -1.2 0  0.5333333333333332 -1.2 0  0.6666666666666665 -1.2 0  0.7999999999999998 -1.2 0  0.9333333333333331 -1.2 0  1.066666666666667 -1.2 0  1.2 -1.2 0  1.333333333333333 -1.2 0  1.466666666666667 -1.2 0  1.6 -1.2 0  1.733333333333333 -1.2 0  1.866666666666667 -1.2 0  2 -1.2 0  -2 -1.066666666666667 0  -1.866666666666667 -1.066666666666667 0  -1.733333333333333 -1.066666666666667 0  -1.6 -1.066666666666667 0  -1.466666666666667 -1.066666666666667 0  -1.333333333333333 -1.066666666666667 0  -1.2 -1.066666666666667 0  -1.066666666666667 -1.066666666666667 0  -0.9333333333333333 -1.066666666666667 0  -0.8 -1.066666666666667 0  -0.6666666666666667 -1.066666666666667 0  -0.5333333333333334 -1.066666666666667 0  -0.3999999999999999 -1.066666666666667 0  -0.2666666666666666 -1.066666666666667 0  -0.1333333333333333 -1.066666666666667 0  0 -1.066666666666667 0  0.1333333333333333 -1.066666666666667 0  0.2666666666666666 -1.066666666666667 0  0.3999999999999999 -1.066666666666667 0  0.5333333333333332 -1.066666666666667 0  0.6666666666666665 -1.066666666666667 0  0.7999999999999998 -1.066666666666667 0  0.9333333333333331 -1.066666666666667 0  1.066666666666667 -1.066666666666667 0  1.2 -1.066666666666667 0  1.333333333333333 -1.066666666666667 0  1.466666666666667 -1.066666666666667 0  1.6 -1.066666666666667 0  1.733333333333333 -1.066666666666667 0  1.866666666666667 -1.066666666666667 0  2 -1.066666666666667 0  -2 -0.9333333333333333 0  -1.866666666666667 -0.9333333333333333 0  -1.733333333333333 -0.9333333333333333 0  -1.6 -0.9333333333333333 0  -1.466666666666667 -0.9333333333333333 0  -1.333333333333333 -0.9333333333333333 0  -1.2 -0.9333333333333333 0  -1.066666666666667 -0.9333333333333333 0  -0.9333333333333333 -0.9333333333333333 0  -0.8 -0.9333333333333333 0  -0.6666666666666667 -0.9333333333333333 0  -0.5333333333333334 -0.9333333333333333 0  -0.3999999999999999 -0.9333333333333333 0  -0.2666666666666666 -0.9333333333333333 0  -0.1333333333333333 -0.9333333333333333 0  0 -0.9333333333333333 0  0.1333333333333333 -0.9333333333333333 0  0.2666666666666666 -0.9333333333333333 0  0.3999999999999999 -0.9333333333333333 0  0.5333333333333332 -0.9333333333333333 0  0.6666666666666665 -0.9333333333333333 0  0.7999999999999998 -0.9333333333333333 0  0.9333333333333331 -0.9333333333333333 0  1.066666666666667 -0.9333333333333333 0  1.2 -0.9333333333333333 0  1.333333333333333 -0.9333333333333333 0  1.466666666666667 -0.9333333333333333 0  1.6 -0.9333333333333333 0  1.733333333333333 -0.9333333333333333 0  1.866666666666667 -0.9333333333333333 0  2 -0.9333333333333333 0  -2 -0.8 0  -1.866666666666667 -0.8 0  -1.733333333333333 -0.8 0  -1.6 -0.8 0  -1.466666666666667 -0.8 0  -1.333333333333333 -0.8 0  -1.2 -0.8 0  -1.066666666666667 -0.8 0  -0.9333333333333333 -0.8 0  -0.8 -0.8 0  -0.6666666666666667 -0.8 0  -0.5333333333333334 -0.8 0  -0.3999999999999999 -0.8 0  -0.2666666666666666 -0.8 0  -0.1333333333333333 -0.8 0  0 -0.8 0  0.1333333333333333 -0.8 0  0.2666666666666666 -0.8 0  0.3999999999999999 -0.8 0  0.5333333333333332 -0.8 0  0.6666666666666665 -0.8 0  0.7999999999999998 -0.8 0  0.9333333333333331 -0.8 0  1.066666666666667 -0.8 0  1.2 -0.8 0  1.333333333333333 -0.8 0  1.466666666666667 -0.8 0  1.6 -0.8 0  1.733333333333333 -0.8 0  1.866666666666667 -0.8 0  2 -0.8 0  -2 -0.6666666666666667 0  -1.866666666666667 -0.
[...]
<PointData  Scalars="f_468"> 
<DataArray  type="Float64"  Name="f_468"  format="ascii">0.0000000000000000e+00  0.0000000000000000e+00  0.0000000000000000e+00  0.0000000000000000e+00  0.0000000000000000e+00  0.0000000000000000e+00  0.0000000000000000e+00  0.0000000000000000e+00  0.0000000000000000e+00  0.0000000000000000e+00  0.0000000000000000e+00  0.0000000000000000e+00  0.0000000000000000e+00  0.0000000000000000e+00  0.0000000000000000e+00  0.0000000000000000e+00  0.0000000000000000e+00  0.0000000000000000e+00  0.0000000000000000e+00  0.0000000000000000e+00  0.0000000000000000e+00  0.0000000000000000e+00  0.0000000000000000e+00  0.0000000000000000e+00  0.0000000000000000e+00  0.0000000000000000e+00  0.0000000000000000e+00  0.0000000000000000e+00  0.0000000000000000e+00  0.0000000000000000e+00  0.0000000000000000e+00  0.0000000000000000e+00  1.8459616400070143e-04  3.9004119608472874e-04  6.3194892959373902e-04  9.2419291480973936e-04  1.2769726345028133e-03  1.6949396083017088e-03  2.1754526777196491e-03  2.7072788628540422e-03  3.2701491893497811e-03  3.8355348884758318e-03  4.3688307703279037e-03  4.8328493742366115e-03  5.1922078584186564e-03  5.4179194633965288e-03  5.4913699695256189e-03  5.4069205877229874e-03  5.1726302526329754e-03  4.8089714142112864e-03  4.3458224960099146e-03  3.8183482220181348e-03  3.2625452113980015e-03  2.7112059671379170e-03  2.1908673924915909e-03  1.7200292720734524e-03  1.3086374561080345e-03  9.5859716457904955e-04  6.6495437250418303e-04  4.1736006857091043e-04  2.0147622991132684e-04  0.0000000000000000e+00  0.0000000000000000e+00  3.9004119608472874e-04  8.2192580620737000e-04  1.3296839343153388e-03  1.9428001194611031e-03  2.6827771043207859e-03  3.5593919620807422e-03  4.5670997013445621e-03  5.6823289506256524e-03  6.8625524636501661e-03  8.0479091202954028e-03  9.1657766551791701e-03  1.0138099325923423e-02  1.0890597927415820e-02  1.1362419126072491e-02  1.1514500859711405e-02  1.1335054930709951e-02  1.0841094539868087e-02  1.0075736318061702e-02  9.1018695290563511e-03  7.9934790954451461e-03  6.8262622318513381e-03  5.6691290510920457e-03  4.5777833853618928e-03  3.5909870044018547e-03  2.7294959488692104e-03  1.9971739783941921e-03  1.3835234175446354e-03  8.6684120096102921e-04  4.1736006857091032e-04  0.0000000000000000e+00  0.0000000000000000e+00  6.3194892959373935e-04  1.3296839343153396e-03  2.1490840412578555e-03  3.1381749376996246e-03  4.3318563586106683e-03  5.7459966465364942e-03  7.3716868999721338e-03  9.1708925035729506e-03  1.1074947480033520e-02  1.2987160531600940e-02  1.4790190487294115e-02  1.6357885437730875e-02  1.7570181419461445e-02  1.8328727389589117e-02  1.8570442644460429e-02  1.8276408742004372e-02  1.7474349044038079e-02  1.6234250460145878e-02  1.4658086365818012e-02  1.2865731002170836e-02  1.0979732685808942e-02  9.1115338317926207e-03  7.3510836802866191e-03  5.7608226099946248e-03  4.3740154488945433e-03  3.1966246324724576e-03  2.2114878876853296e-03  1.3835234175446352e-03  6.6495437250418293e-04  0.0000000000000000e+00  0.0000000000000000e+00  9.2419291480973990e-04  1.9428001194611046e-03  3.1381749376996277e-03  4.5808970769355504e-03  6.3222041355775844e-03  8.3854549078853195e-03  1.0757774648469156e-02  1.3383700965450183e-02  1.6162958116057478e-02  1.8954233187683224e-02  2.1585935814172164e-02  2.3873511406309448e-02  2.5641262881672927e-02  2.6745264111902176e-02  2.7093261607345345e-02  2.6657739505161065e-02  2.5479568689457478e-02  2.3661574923253631e-02  2.1353431510216715e-02  1.8730953154244424e-02  1.5973721766748765e-02  1.3244859155615475e-02  1.0675813085346045e-02  8.3575940721981479e-03  6.3384209326913738e-03  4.6265733102931490e-03  3.1966246324724576e-03  1.9971739783941921e-03  9.5859716457904955e-04  0.0000000000000000e+00  0.0000000000000000e+00  1.2769726345028144e-03  2.6827771043207889e-03  4.3318563586106709e-03  6.3222041355775870e-03  8.7249890732934571e-03  1.1572813010087866e-02  1.4848174154597396e-02  1.8474650313153464e-02  2.2313759518556749e-02  2.6170114854312043e-02  2.9806262037736658e-02  3.2966631818330955e-02  3.5407791137681173e-02  3.6930258045291604e-02  3.7406173833501588e-02  3.6797497903860034e-02  3.5161115584201069e-02  3.2639913848077615e-02  2.9441771294991814e-02  2.5810747776816426e-02  2.1995958054910284e-02  1.8223455463999928e-02  1.4675125950699253e-02  1.1476592877673577e-02  8.6940627723153183e-03  6.3384209326913729e-03  4.3740154488945424e-03  2.7294959488692095e-03  1.3086374561080342e-03  0.0000000000000000e+00  0.0000000000000000e+00  1.6949396083017112e-03  3.5593919620807448e-03  5.7459966465364960e-03  8.3854549078853213e-03  1.1572813010087871e-02  1.5351896568236087e-02  1.9699961133949697e-02  2.4515899566445145e-02  2.9615955267002541e-02  3.4740455825461342e-02  3.9573458607816914e-02  4.3774594506364672e-02  4.7019387025939940e-02  4.9041740660389667e-02  4.9670967430805707e-02  4.8856193111277924e-02  4.6673277116821080e-02  4.3312945860205988e-02  3.9052722911927566e-02  3.4218390690473076e-02  2.9142341404164569e-02  2.4125970901088190e-02  1.9411490141501619e-02  1.5165838147887923e-02  1.1476592877673573e-02  8.3575940721981427e-03  5.7608226099946239e-03  3.5909870044018534e-03  1.7200292720734515e-03  0.0000000000000000e+00  0.0000000000000000e+00  2.1754526777196508e-03  4.5670997013445656e-03  7.3716868999721382e-03  1.0757774648469167e-02  1.4848174154597410e-02  1.9699961133949718e-02  2.5284695210309120e-02  3.1473134469406035e-02  3.8029544244181736e-02  4.4620166813617232e-02  5.0838347891957195e-02  5.6245462771653237e-02  6.0422889855212818e-02  6.3026913667947007e-02  6.3836687211931642e-02  6.2785956622657249e-02  5.9972192856174389e-02  5.5641387743787754e-02  5.0151817953958747e-02  4.3924191712764578e-02  3.7387724641311168e-02  3.0931443948663623e-02  2.4867715777880731e-02  1.9411490141501619e-02  1.4675125950699265e-02  1.0675813085346044e-02  7.3510836802866174e-03  4.5777833853618928e-03  2.1908673924915900e-03  0.0000000000000000e+00  0.0000000000000000e+00  2.7072788628540443e-03  5.6823289506256567e-03  9.1708925035729645e-03  1.3383700965450199e-02  1.8474650313153471e-02  2.4515899566445173e-02  3.1473134469406056e-02  3.9186333408269561e-02  4.7362416456733086e-02  5.5585530622577803e-02  6.3348167211757386e-02  7.0102127293657612e-02  7.5323464606383256e-02  7.8581282593918181e-02  7.9598011835340196e-02  7.8289457323125491e-02  7.4776557123010845e-02  6.9366573771808937e-02  6.2507796426387152e-02  5.4727036270972904e-02  4.6561919408398336e-02  3.8499701826406586e-02  3.0931443948663612e-02  2.4125970901088194e-02  1.8223455463999942e-02  1.3244859155615478e-02  9.1115338317926207e-03  5.6691290510920448e-03  2.7112059671379157e-03  0.0000000000000000e+00  0.0000000000000000e+00  3.2701491893497832e-03  6.8625524636501721e-03  1.1074947480033528e-02  1.6162958116057499e-02  2.2313759518556762e-02  2.9615955267002586e-02  3.8029544244181757e-02  4.7362416456733065e-02  5.7261121910585577e-02  6.7222943721521933e-02  7.6633247796687579e-02  8.4827030318922553e-02  9.1167638894812622e-02  9.5130429275430459e-02  9.6376311869858955e-02  9.4800873363051916e-02  9.0549148158951889e-02  8.3993134647578099e-02  7.5676918913075528e-02  6.6240664996772350e-02  5.6338111180038640e-02  4.6561919408398392e-02  3.7387724641311203e-02  2.9142341404164624e-02  2.1995958054910326e-02  1.5973721766748782e-02  1.0979732685808952e-02  6.8262622318513424e-03  3.2625452113980028e-03  0.0000000000000000e+00  0.0000000000000000e+00  3.8355348884758331e-03  8.0479091202954080e-03  1.2987160531600950e-02  1.8954233187683238e-02  2.6170114854312063e-02  3.4740455825461376e-02  4.4620166813617246e-02  5.5585530622577796e-02  6.7222943721521919e-02  7.8942624273316012e-02  9.0022077697708494e-02  9.9678192954894315e-02  1.0715982716633728e-01  1.1184653361870869e-01  1.1333568676137158e-01  1.1150102302906116e-01  1.0651072487042593e-01  9.8801441792833886e-02  8.9013850158132943e-02  7.7902985687321999e-02  6.6240664996772322e-02  5.4727036270972952e-02  4.3924191712764633e-02  3.4218390690473145e-02  2.5810747776816467e-02  1.8730953154244449e-02  1.2865731002170845e-02  7.9934790954451513e-03  3.8183482220181383e-03  0.0000000000000000e+00  0.0000000000000000e+00  4.3688307703279054e-03  9.1657766551791770e-03  1.4790190487294125e-02  2.1585935814172182e-02  2.9806262037736678e-02  3.9573458607816941e-02  5.0838347891957188e-02  6.3348167211757359e-02  7.6633247796687509e-02  9.0022077697708466e-02  1.0269035313409201e-01  1.1374290060209039e-01  1.2231932398949602e-01  1.2770707338218473e-01  1.2944163334220385e-01  1.2737428506370418e-01  1.2169365429285321e-01  1.1289669261443391e-01  1.0171532687558228e-01  8.9013850158132915e-02  7.5676918913075472e-02  6.2507796426387194e-02  5.0151817953958754e-02  3.9052722911927649e-02  2.9441771294991852e-02  2.1353431510216746e-02  1.4658086365818022e-02  9.1018695290563650e-03  4.3458224960099190e-03  0.0000000000000000e+00  0.0000000000000000e+00  4.8328493742366167e-03  1.0138099325923433e-02  1.6357885437730892e-02  2.3873511406309490e-02  3.2966631818331010e-02  4.3774594506364707e-02  5.6245462771653230e-02  7.0102127293657585e-02  8.4827030318922497e-02  9.9678192954894204e-02  1.1374290060209033e-01  1.2602799894316871e-01  1.3557684542135723e-01  1.4159495142691694e-01  1.4356179096908525e-01  1.4130695275448704e-01  1.3503509635700831e-01  1.2529461257722535e-01  1.1289669261443389e-01  9.8801441792833830e-02  8.3993134647578044e-02  6.9366573771808979e-02  5.5641387743787823e-02  4.3312945860206037e-02  3.2639913848077622e-02  2.3661574923253645e-02  1.6234250460145889e-02  1.0075736318061707e-02  4.8089714142112890e-03  0.0000000000000000e+00  0.0000000000000000e+00  5.1922078584186624e-03  1.0890597927415840e-02  1.7570181419461477e-02  2.5641262881672996e-02  3.5407791137681249e-02  4.7019387025940031e-02  6.0422889855212852e-02  7.5323464606383256e-02  9.1167638894812580e-02  1.0715982716633718e-01  1.2231932398949595e-01  1.3557684542135723e-01  1.4590011601150638e-01  1.5242930925523954e-01  1.5459811057428283e-01  1.5221677277851997e-01  1.4550017579263211e-01  1.3503509635700833e-01  1.2169365429285317e-01  1.0651072487042593e-01  9.0549148158951875e-02  7.4776557123010901e-02  5.9972192856174389e-02  4.6673277116821142e-02  3.5161115584201104e-02  2.5479568689457478e-02  1.7474349044038089e-02  1.0841094539868090e-02  5.1726302526329789e-03  0.0000000000000000e+00  0.0000000000000000e+00  5.4179194633965418e-03  1.1362419126072524e-02  1.8328727389589166e-02  2.6745264111902256e-02  3.6930258045291736e-02  4.9041740660389785e-02  6.3026913667947090e-02  7.8581282593918250e-02  9.5130429275430542e-02  1.1184653361870876e-01  1.2770707338218479e-01  1.4159495142691703e-01  1.5242930925523965e-01  1.5930714795036624e-01  1.6163048308797656e-01  1.5919422465197289e-01  1.5221677277852005e-01  1.4130695275448713e-01  1.2737428506370413e-01  1.1150102302906112e-01  9.4800873363051888e-02  7.8289457323125519e-02  6.2785956622657249e-02  4.8856193111277958e-02  3.6797497903860048e-02  2.6657739505161090e-02  1.8276408742004389e-02  1.1335054930709963e-02  5.4069205877229900e-03  0.0000000000000000e+00  0.0000000000000000e+00  5.4913699695256328e-03  1.1514500859711438e-02  1.8570442644460481e-02  2.7093261607345442e-02  3.7406173833501685e-02  4.9670967430805853e-02  6.3836687211931781e-02  7.9598011835340349e-02  9.6376311869859121e-02  1.1333568676137182e-01  1.2944163334220413e-01  1.4356179096908556e-01  1.5459811057428299e-01  1.6163048308797659e-01  1.6404626979006429e-01  1.6163048308797645e-01  1.5459811057428283e-01  1.4356179096908522e-01  1.2944163334220385e-01  1.1333568676137150e-01  9.6376311869858941e-02  7.9598011835340210e-02  6.3836687211931697e-02  4.9670967430805756e-02  3.7406173833501588e-02  2.7093261607345376e-02  1.8570442644460439e-02  1.1514500859711408e-02  5.4913699695256189e-03  0.0000000000000000e+00  0.0000000000000000e+00  5.4069205877230048e-03  1.1335054930709992e-02  1.8276408742004438e-02  2.6657739505161163e-02  3.6797497903860159e-02  4.8856193111278062e-02  6.2785956622657360e-02  7.8289457323125672e-02  9.4800873363052235e-02  1.1150102302906142e-01  1.2737428506370452e-01  1.4130695275448743e-01  1.5221677277852028e-01  1.5919422465197303e-01  1.6163048308797659e-01  1.5930714795036624e-01  1.5242930925523951e-01  1.4159495142691680e-01  1.2770707338218459e-01  1.1184653361870860e-01  9.5130429275430362e-02  7.8581282593918195e-02  6.3026913667947049e-02  4.9041740660389695e-02  3.6930258045291604e-02  2.6745264111902187e-02  1.8328727389589121e-02  1.1362419126072491e-02  5.4179194633965262e-03  0.0000000000000000e+00  0.0000000000000000e+00  5.1726302526329919e-03  1.0841094539868123e-02  1.7474349044038134e-02  2.5479568689457548e-02  3.5161115584201194e-02  4.6673277116821212e-02  5.9972192856174479e-02  7.4776557123011012e-02  9.0549148158952111e-02  1.0651072487042616e-01  1.2169365429285352e-01  1.3503509635700875e-01  1.4550017579263250e-01  1.5221677277852025e-01  1.5459811057428294e-01  1.5242930925523954e-01  1.4590011601150635e-01  1.3557684542135715e-01  1.2231932398949591e-01  1.0715982716633719e-01  9.1167638894812553e-02  7.5323464606383270e-02  6.0422889855212797e-02  4.7019387025939968e-02  3.5407791137681166e-02  2.5641262881672938e-02  1.7570181419461438e-02  1.0890597927415816e-02  5.1922078584186520e-03  0.0000000000000000e+00  0.0000000000000000e+00  4.8089714142113028e-03  1.0075736318061738e-02  1.6234250460145944e-02  2.3661574923253718e-02  3.2639913848077733e-02  4.3312945860206120e-02  5.5641387743787914e-02  6.9366573771809117e-02  8.3993134647578307e-02  9.8801441792834149e-02  1.1289669261443426e-01  1.2529461257722579e-01  1.3503509635700878e-01  1.4130695275448743e-01  1.4356179096908550e-01  1.4159495142691700e-01  1.3557684542135728e-01  1.2602799894316866e-01  1.1374290060209025e-01  9.9678192954894163e-02  8.4827030318922483e-02  7.0102127293657626e-02  5.6245462771653286e-02  4.3774594506364679e-02  3.2966631818330920e-02  2.3873511406309438e-02  1.6357885437730865e-02  1.0138099325923416e-02  4.8328493742366080e-03  0.0000000000000000e+00  0.0000000000000000e+00  4.3458224960099311e-03  9.1018695290563858e-03  1.4658086365818066e-02  2.1353431510216788e-02  2.9441771294991904e-02  3.9052722911927712e-02  5.0151817953958878e-02  6.2507796426387333e-02  7.5676918913075722e-02  8.9013850158133123e-02  1.0171532687558255e-01  1.1289669261443430e-01  1.2169365429285363e-01  1.2737428506370452e-01  1.2944163334220415e-01  1.2770707338218487e-01  1.2231932398949601e-01  1.1374290060209029e-01  1.0269035313409193e-01  9.0022077697708383e-02  7.6633247796687495e-02  6.3348167211757359e-02  5.0838347891957243e-02  3.9573458607816935e-02  2.9806262037736640e-02  2.1585935814172157e-02  1.4790190487294108e-02  9.1657766551791631e-03  4.3688307703279002e-03  0.0000000000000000e+00  0.0000000000000000e+00  3.8183482220181496e-03  7.9934790954451773e-03  1.2865731002170887e-02  1.8730953154244497e-02  2.5810747776816533e-02  3.4218390690473208e-02  4.3924191712764724e-02  5.4727036270973084e-02  6.6240664996772572e-02  7.7902985687322235e-02  8.9013850158133165e-02  9.8801441792834205e-02  1.0651072487042629e-01  1.1150102302906144e-01  1.1333568676137182e-01  1.1184653361870886e-01  1.0715982716633735e-01  9.9678192954894315e-02  9.0022077697708494e-02  7.8942624273316025e-02  6.7222943721521919e-02  5.5585530622577768e-02  4.4620166813617253e-02  3.4740455825461362e-02  2.6170114854312025e-02  1.8954233187683214e-02  1.2987160531600934e-02  8.0479091202953993e-03  3.8355348884758309e-03  0.0000000000000000e+00  0.0000000000000000e+00  3.2625452113980162e-03  6.8262622318513719e-03  1.0979732685808985e-02  1.5973721766748834e-02  2.1995958054910388e-02  2.9142341404164700e-02  3.7387724641311328e-02  4.6561919408398510e-02  5.6338111180038862e-02  6.6240664996772600e-02  7.5676918913075805e-02  8.3993134647578391e-02  9.0549148158952208e-02  9.4800873363052207e-02  9.6376311869859191e-02  9.5130429275430639e-02  9.1167638894812816e-02  8.4827030318922692e-02  7.6633247796687676e-02  6.7222943721522030e-02  5.7261121910585612e-02  4.7362416456733093e-02  3.8029544244181757e-02  2.9615955267002579e-02  2.2313759518556749e-02  1.6162958116057488e-02  1.1074947480033520e-02  6.8625524636501661e-03  3.2701491893497802e-03  0.0000000000000000e+00  0.0000000000000000e+00  2.7112059671379279e-03  5.6691290510920691e-03  9.1115338317926571e-03  1.3244859155615525e-02  1.8223455463999994e-02  2.4125970901088273e-02  3.0931443948663703e-02  3.8499701826406704e-02  4.6561919408398530e-02  5.4727036270973119e-02  6.2507796426387360e-02  6.9366573771809215e-02  7.4776557123011109e-02  7.8289457323125755e-02  7.9598011835340432e-02  7.8581282593918389e-02  7.5323464606383464e-02  7.0102127293657793e-02  6.3348167211757497e-02  5.5585530622577907e-02  4.7362416456733135e-02  3.9186333408269609e-02  3.1473134469406056e-02  2.4515899566445180e-02  1.8474650313153481e-02  1.3383700965450203e-02  9.1708925035729610e-03  5.6823289506256567e-03  2.7072788628540443e-03  0.0000000000000000e+00  0.0000000000000000e+00  2.1908673924915982e-03  4.5777833853619075e-03  7.3510836802866417e-03  1.0675813085346082e-02  1.4675125950699310e-02  1.9411490141501682e-02  2.4867715777880783e-02  3.0931443948663685e-02  3.7387724641311286e-02  4.3924191712764710e-02  5.0151817953958865e-02  5.5641387743787907e-02  5.9972192856174472e-02  6.2785956622657374e-02  6.3836687211931795e-02  6.3026913667947146e-02  6.0422889855212908e-02  5.6245462771653341e-02  5.0838347891957264e-02  4.4620166813617294e-02  3.8029544244181791e-02  3.1473134469406069e-02  2.5284695210309127e-02  1.9699961133949704e-02  1.4848174154597400e-02  1.0757774648469160e-02  7.3716868999721312e-03  4.5670997013445612e-03  2.1754526777196495e-03  0.0000000000000000e+00  0.0000000000000000e+00  1.7200292720734576e-03  3.5909870044018659e-03  5.7608226099946447e-03  8.3575940721981774e-03  1.1476592877673625e-02  1.5165838147887970e-02  1.9411490141501665e-02  2.4125970901088246e-02  2.9142341404164662e-02  3.4218390690473201e-02  3.9052722911927726e-02  4.3312945860206134e-02  4.6673277116821253e-02  4.8856193111278062e-02  4.9670967430805825e-02  4.9041740660389792e-02  4.7019387025940072e-02  4.3774594506364763e-02  3.9573458607816976e-02  3.4740455825461411e-02  2.9615955267002603e-02  2.4515899566445204e-02  1.9699961133949725e-02  1.5351896568236080e-02  1.1572813010087861e-02  8.3854549078853161e-03  5.7459966465364942e-03  3.5593919620807413e-03  1.6949396083017095e-03  0.0000000000000000e+00  0.0000000000000000e+00  1.3086374561080386e-03  2.7294959488692182e-03  4.3740154488945571e-03  6.3384209326913963e-03  8.6940627723153512e-03  1.1476592877673605e-02  1.4675125950699293e-02  1.8223455463999970e-02  2.1995958054910357e-02  2.5810747776816512e-02  2.9441771294991946e-02  3.2639913848077746e-02  3.5161115584201215e-02  3.6797497903860138e-02  3.7406173833501664e-02  3.6930258045291701e-02  3.5407791137681242e-02  3.2966631818331010e-02  2.9806262037736713e-02  2.6170114854312084e-02  2.2313759518556783e-02  1.8474650313153498e-02  1.4848174154597415e-02  1.1572813010087866e-02  8.7249890732934519e-03  6.3222041355775801e-03  4.3318563586106666e-03  2.6827771043207880e-03  1.2769726345028139e-03  0.0000000000000000e+00  0.0000000000000000e+00  9.5859716457905259e-04  1.9971739783941982e-03  3.1966246324724675e-03  4.6265733102931646e-03  6.3384209326913937e-03  8.3575940721981670e-03  1.0675813085346066e-02  1.3244859155615501e-02  1.5973721766748807e-02  1.8730953154244487e-02  2.1353431510216802e-02  2.3661574923253721e-02  2.5479568689457548e-02  2.6657739505161142e-02  2.7093261607345407e-02  2.6745264111902235e-02  2.5641262881672976e-02  2.3873511406309497e-02  2.1585935814172192e-02  1.8954233187683252e-02  1.6162958116057519e-02  1.3383700965450216e-02  1.075777464846916