<?xml version="1.0"?>
<VTKFile type="UnstructuredGrid"  version="0.1"  >
<UnstructuredGrid>
<Piece  NumberOfPoints="961" NumberOfCells="1800">
<Points>
<DataArray  type="Float64"  NumberOfComponents="3"  format="ascii">-2 -2 0  -1.866666666666667 -2 0  -1.733333333333333 -2 0  -1.6 -2 0  -1.466666666666667 -2 0  -1.333333333333333 -2 0  -1.2 -2 0  -1.066666666666667 -2 0  -0.9333333333333333 -2 0  -0.8 -2 0  -0.6666666666666667 -2 0  -0.5333333333333334 -2 0  -0.3999999999999999 -2 0  -0.2666666666666666 -2 0  -0.1333333333333333 -2 0  0 -2 0  0.1333333333333333 -2 0  0.2666666666666666 -2 0  0.3999999999999999 -2 0  0.5333333333333332 -2 0  0.6666666666666665 -2 0  0.7999999999999998 -2 0  0.9333333333333331 -2 0  1.066666666666667 -2 0  1.2 -2 0  1.333333333333333 -2 0  1.466666666666667 -2 0  1.6 -2 0  1.733333333333333 -2 0  1.866666666666667 -2 0  2 -2 0  -2 -1.866666666666667 0  -1.866666666666667 -1.866666666666667 0  -1.733333333333333 -1.866666666666667 0  -1.6 -1.866666666666667 0  -1.466666666666667 -1.866666666666667 0  -1.333333333333333 -1.866666666666667 0  -1.2 -1.866666666666667 0  -1.066666666666667 -1.866666666666667 0  -0.9333333333333333 -1.866666666666667 0  -0.8 -1.866666666666667 0  -0.6666666666666667 -1.866666666666667 0  -0.5333333333333334 -1.866666666666667 0  -0.3999999999999999 -1.866666666666667 0  -0.2666666666666666 -1.866666666666667 0  -0.1333333333333333 -1.866666666666667 0  0 -1.866666666666667 0  0.1333333333333333 -1.866666666666667 0  0.2666666666666666 -1.866666666666667 0  0.3999999999999999 -1.866666666666667 0  0.5333333333333332 -1.866666666666667 0  0.6666666666666665 -1.866666666666667 0  0.7999999999999998 -1.866666666666667 0  0.9333333333333331 -1.866666666666667 0  1.066666666666667 -1.866666666666667 0  1.2 -1.866666666666667 0  1.333333333333333 -1.866666666666667 0  1.466666666666667 -1.866666666666667 0  1.6 -1.866666666666667 0  1.733333333333333 -1.866666666666667 0  1.866666666666667 -1.866666666666667 0  2 -1.866666666666667 0  -2 -1.733333333333333 0  -1.866666666666667 -1.733333333333333 0  -1.733333333333333 -1.733333333333333 0  -1.6 -1.733333333333333 0  -1.466666666666667 -1.733333333333333 0  -1.333333333333333 -1.733333333333333 0  -1.2 -1.733333333333333 0  -1.066666666666667 -1.733333333333333 0  -0.9333333333333333 -1.733333333333333 0  -0.8 -1.733333333333333 0  -0.6666666666666667 -1.733333333333333 0  -0.5333333333333334 -1.733333333333333 0  -0.3999999999999999 -1.733333333333333 0  -0.2666666666666666 -1.733333333333333 0  -0.1333333333333333 -1.733333333333333 0  0 -1.733333333333333 0  0.1333333333333333 -1.733333333333333 0  0.2666666666666666 -1.733333333333333 0  0.3999999999999999 -1.733333333333333 0  0.5333333333333332 -1.733333333333333 0  0.6666666666666665 -1.733333333333333 0  0.7999999999999998 -1.733333333333333 0  0.9333333333333331 -1.733333333333333 0  1.066666666666667 -1.733333333333333 0  1.2 -1.733333333333333 0  1.333333333333333 -1.733333333333333 0  1.466666666666667 -1.733333333333333 0  1.6 -1.733333333333333 0  1.733333333333333 -1.733333333333333 0  1.866666666666667 -1.733333333333333 0  2 -1.733333333333333 0  -2 -1.6 0  -1.866666666666667 -1.6 0  -1.733333333333333 -1.6 0  -1.6 -1.6 0  -1.466666666666667 -1.6 0  -1.333333333333333 -1.6 0  -1.2 -1.6 0  -1.066666666666667 -1.6 0  -0.9333333333333333 -1.6 0  -0.8 -1.6 0  -0.6666666666666667 -1.6 0  -0.5333333333333334 -1.6 0  -0.3999999999999999 -1.6 0  -0.2666666666666666 -1.6 0  -0.1333333333333333 -1.6 0  0 -1.6 0  0.1333333333333333 -1.6 0  0.2666666666666666 -1.6 0  0.3999999999999999 -1.6 0  0.5333333333333332 -1.6 0  0.6666666666666665 -1.6 0  0.7999999999999998 -1.6 0  0.9333333333333331 -1.6 0  1.066666666666667 -1.6 0  1.2 -1.6 0  1.333333333333333 -1.6 0  1.466666666666667 -1.6 0  1.6 -1.6 0  1.733333333333333 -1.6 0  1.866666666666667 -1.6 0  2 -1.6 0  -2 -1.466666666666667 0  -1.866666666666667 -1.466666666666667 0  -1.733333333333333 -1.466666666666667 0  -1.6 -1.466666666666667 0  -1.466666666666667 -1.466666666666667 0  -1.333333333333333 -1.466666666666667 0  -1.2 -1.466666666666667 0  -1.066666666666667 -1.466666666666667 0  -0.9333333333333333 -1.466666666666667 0  -0.8 -1.466666666666667 0  -0.6666666666666667 -1.466666666666667 0  -0.5333333333333334 -1.466666666666667 0  -0.3999999999999999 -1.466666666666667 0  -0.2666666666666666 -1.466666666666667 0  -0.1333333333333333 -1.466666666666667 0  0 -1.466666666666667 0  0.1333333333333333 -1.466666666666667 0  0.2666666666666666 -1.466666666666667 0  0.3999999999999999 -1.466666666666667 0  0.5333333333333332 -1.466666666666667 0  0.6666666666666665 -1.466666666666667 0  0.7999999999999998 -1.466666666666667 0  0.9333333333333331 -1.466666666666667 0  1.066666666666667 -1.466666666666667 0  1.2 -1.466666666666667 0  1.333333333333333 -1.466666666666667 0  1.466666666666667 -1.466666666666667 0  1.6 -1.466666666666667 0  1.733333333333333 -1.466666666666667 0  1.866666666666667 -1.466666666666667 0  2 -1.466666666666667 0  -2 -1.333333333333333 0  -1.866666666666667 -1.333333333333333 0  -1.733333333333333 -1.333333333333333 0  -1.6 -1.333333333333333 0  -1.466666666666667 -1.333333333333333 0  -1.333333333333333 -1.333333333333333 0  -1.2 -1.333333333333333 0  -1.066666666666667 -1.333333333333333 0  -0.9333333333333333 -1.333333333333333 0  -0.8 -1.333333333333333 0  -0.6666666666666667 -1.333333333333333 0  -0.5333333333333334 -1.333333333333333 0  -0.3999999999999999 -1.333333333333333 0  -0.2666666666666666 -1.333333333333333 0  -0.1333333333333333 -1.333333333333333 0  0 -1.333333333333333 0  0.1333333333333333 -1.333333333333333 0  0.2666666666666666 -1.333333333333333 0  0.3999999999999999 -1.333333333333333 0  0.5333333333333332 -1.333333333333333 0  0.6666666666666665 -1.333333333333333 0  0.7999999999999998 -1.333333333333333 0  0.9333333333333331 -1.333333333333333 0  1.066666666666667 -1.333333333333333 0  1.2 -1.333333333333333 0  1.333333333333333 -1.333333333333333 0  1.466666666666667 -1.333333333333333 0  1.6 -1.333333333333333 0  1.733333333333333 -1.333333333333333 0  1.866666666666667 -1.333333333333333 0  2 -1.333333333333333 0  -2 -1.2 0  -1.866666666666667 -1.2 0  -1.733333333333333 -1.2 0  -1.6 -1.2 0  -1.466666666666667 -1.2 0  -1.333333333333333 -1.2 0  -1.2 -1.2 0  -1.066666666666667 -1.2 0  -0.9333333333333333 -1.2 0  -0.8 -1.2 0  -0.6666666666666667 -1.2 0  -0.5333333333333334 -1.2 0  -0.3999999999999999 -1.2 0  -0.2666666666666666 -1.2 0  -0.1333333333333333 -1.2 0  0 -1.2 0  0.1333333333333333 -1.2 0  0.2666666666666666 -1.2 0  0.3999999999999999 -1.2 0  0.5333333333333332 -1.2 0  0.6666666666666665 -1.2 0  0.7999999999999998 -1.2 0  0.9333333333333331 -1.2 0  1.066666666666667 -1.2 0  1.2 -1.2 0  1.333333333333333 -1.2 0  1.466666666666667 -1.2 0  1.6 -1.2 0  1.733333333333333 -1.2 0  1.866666666666667 -1.2 0  2 -1.2 0  -2 -1.066666666666667 0  -1.866666666666667 -1.066666666666667 0  -1.733333333333333 -1.066666666666667 0  -1.6 -1.066666666666667 0  -1.466666666666667 -1.066666666666667 0  -1.333333333333333 -1.066666666666667 0  -1.2 -1.066666666666667 0  -1.066666666666667 -1.066666666666667 0  -0.9333333333333333 -1.066666666666667 0  -0.8 -1.066666666666667 0  -0.6666666666666667 -1.066666666666667 0  -0.5333333333333334 -1.066666666666667 0  -0.3999999999999999 -1.066666666666667 0  -0.2666666666666666 -1.066666666666667 0  -0.1333333333333333 -1.066666666666667 0  0 -1.066666666666667 0  0.1333333333333333 -1.066666666666667 0  0.2666666666666666 -1.066666666666667 0  0.3999999999999999 -1.066666666666667 0  0.5333333333333332 -1.066666666666667 0  0.6666666666666665 -1.066666666666667 0  0.7999999999999998 -1.066666666666667 0  0.9333333333333331 -1.066666666666667 0  1.066666666666667 -1.066666666666667 0  1.2 -1.066666666666667 0  1.333333333333333 -1.066666666666667 0  1.466666666666667 -1.066666666666667 0  1.6 -1.066666666666667 0  1.733333333333333 -1.066666666666667 0  1.866666666666667 -1.066666666666667 0  2 -1.066666666666667 0  -2 -0.9333333333333333 0  -1.866666666666667 -0.9333333333333333 0  -1.733333333333333 -0.9333333333333333 0  -1.6 -0.9333333333333333 0  -1.466666666666667 -0.9333333333333333 0  -1.333333333333333 -0.9333333333333333 0  -1.2 -0.9333333333333333 0  -1.066666666666667 -0.9333333333333333 0  -0.9333333333333333 -0.9333333333333333 0  -0.8 -0.9333333333333333 0  -0.6666666666666667 -0.9333333333333333 0  -0.5333333333333334 -0.9333333333333333 0  -0.3999999999999999 -0.9333333333333333 0  -0.2666666666666666 -0.9333333333333333 0  -0.1333333333333333 -0.9333333333333333 0  0 -0.9333333333333333 0  0.1333333333333333 -0.9333333333333333 0  0.2666666666666666 -0.9333333333333333 0  0.3999999999999999 -0.9333333333333333 0  0.5333333333333332 -0.9333333333333333 0  0.6666666666666665 -0.9333333333333333 0  0.7999999999999998 -0.9333333333333333 0  0.9333333333333331 -0.9333333333333333 0  1.066666666666667 -0.9333333333333333 0  1.2 -0.9333333333333333 0  1.333333333333333 -0.9333333333333333 0  1.466666666666667 -0.9333333333333333 0  1.6 -0.9333333333333333 0  1.733333333333333 -0.9333333333333333 0  1.866666666666667 -0.9333333333333333 0  2 -0.9333333333333333 0  -2 -0.8 0  -1.866666666666667 -0.8 0  -1.733333333333333 -0.8 0  -1.6 -0.8 0  -1.466666666666667 -0.8 0  -1.333333333333333 -0.8 0  -1.2 -0.8 0  -1.066666666666667 -0.8 0  -0.9333333333333333 -0.8 0  -0.8 -0.8 0  -0.6666666666666667 -0.8 0  -0.5333333333333334 -0.8 0  -0.3999999999999999 -0.8 0  -0.2666666666666666 -0.8 0  -0.1333333333333333 -0.8 0  0 -0.8 0  0.1333333333333333 -0.8 0  0.2666666666666666 -0.8 0  0.3999999999999999 -0.8 0  0.5333333333333332 -0.8 0  0.6666666666666665 -0.8 0  0.7999999999999998 -0.8 0  0.9333333333333331 -0.8 0  1.066666666666667 -0.8 0  1.2 -0.8 0  1.333333333333333 -0.8 0  1.466666666666667 -0.8 0  1.6 -0.8 0  1.733333333333333 -0.8 0  1.866666666666667 -0.8 0  2 -0.8 0  -2 -0.6666666666666667 0  -1.866666666666667 -0.
[...]
<PointData  Scalars="f_3403"> 
<DataArray  type="Float64"  Name="f_3403"  format="ascii">0.0000000000000000e+00  0.0000000000000000e+00  0.0000000000000000e+00  0.0000000000000000e+00  0.0000000000000000e+00  0.0000000000000000e+00  0.0000000000000000e+00  0.0000000000000000e+00  0.0000000000000000e+00  0.0000000000000000e+00  0.0000000000000000e+00  0.0000000000000000e+00  0.0000000000000000e+00  0.0000000000000000e+00  0.0000000000000000e+00  0.0000000000000000e+00  0.0000000000000000e+00  0.0000000000000000e+00  0.0000000000000000e+00  0.0000000000000000e+00  0.0000000000000000e+00  0.0000000000000000e+00  0.0000000000000000e+00  0.0000000000000000e+00  0.0000000000000000e+00  0.0000000000000000e+00  0.0000000000000000e+00  0.0000000000000000e+00  0.0000000000000000e+00  0.0000000000000000e+00  0.0000000000000000e+00  0.0000000000000000e+00  2.4076879307344072e-04  4.7849232574975466e-04  7.1076118598942370e-04  9.3513003082649820e-04  1.1491971566027037e-03  1.3506493964388644e-03  1.5372952318079512e-03  1.7070930225078298e-03  1.8581765020917447e-03  1.9888781077168050e-03  2.0977501264368799e-03  2.1835834037996515e-03  2.2454232722611952e-03  2.2825823458566012e-03  2.2946498655261691e-03  2.2814973519725058e-03  2.2432804195296582e-03  2.1804367158712546e-03  2.0936800693415977e-03  1.9839910396785036e-03  1.8526041716749851e-03  1.7009923402590971e-03  1.5308486495322138e-03  1.3440664161293117e-03  1.1427178560761875e-03  9.2903227809455063e-04  7.0537507388941146e-04  4.7423022992922309e-04  2.3819363091702223e-04  0.0000000000000000e+00  0.0000000000000000e+00  4.7849232574975471e-04  9.5119801325721780e-04  1.4131532681872295e-03  1.8594396567382222e-03  2.2852601699534384e-03  2.6860053098707011e-03  3.0573117297073367e-03  3.3951158871482908e-03  3.6957037937408832e-03  3.9557570104954785e-03  4.1723945226115576e-03  4.3432098649623854e-03  4.4663027670034010e-03  4.5403045912268411e-03  4.5643969258865932e-03  4.5383228415656332e-03  4.4623905153133988e-03  4.3374691483115202e-03  4.1649773356872708e-03  3.9468642731116865e-03  3.6855843892920261e-03  3.3840661657300094e-03  3.0456760414355869e-03  2.6741784079608154e-03  2.2736928048035223e-03  1.8486495849880404e-03  1.4037456498265011e-03  9.4390253471729132e-04  4.7423022992922309e-04  0.0000000000000000e+00  0.0000000000000000e+00  7.1076118598942402e-04  1.4131532681872303e-03  2.0996881229709378e-03  2.7630021601903836e-03  3.3959395130207558e-03  3.9916354868496130e-03  4.5435970320056350e-03  5.0457794700467153e-03  5.4926590297229728e-03  5.8793005273235881e-03  6.2014192620011375e-03  6.4554360214405101e-03  6.6385240313452188e-03  6.7486467303753475e-03  6.7845853990069066e-03  6.7459559003836059e-03  6.6332140836309790e-03  6.4476497319257108e-03  6.1913692834746747e-03  5.8672678880843368e-03  5.4789916622100332e-03  5.0308912532027929e-03  4.5279680082347734e-03  3.9758141639427685e-03  3.3805485386351913e-03  2.7487492366133131e-03  2.0873848672092500e-03  1.4037456498265006e-03  7.0537507388941125e-04  0.0000000000000000e+00  0.0000000000000000e+00  9.3513003082649907e-04  1.8594396567382227e-03  2.7630021601903827e-03  3.6360814350765527e-03  4.4692323687076365e-03  5.2534033363154896e-03  5.9800375905055521e-03  6.6411716882236720e-03  7.2295295525045848e-03  7.7386107782990935e-03  8.1627716725119828e-03  8.4972974207173733e-03  8.7384637625437227e-03  8.8835866578323465e-03  8.9310586377265282e-03  8.8803708465788004e-03  8.7321201700951284e-03  8.4880012838384113e-03  8.1507839115424544e-03  7.7242760212457243e-03  7.2132740779372925e-03  6.6235017883317180e-03  5.9615389981531822e-03  5.2347425248786229e-03  4.4511607256349263e-03  3.6194435054648574e-03  2.7487492366133118e-03  1.8486495849880399e-03  9.2903227809455031e-04  0.0000000000000000e+00  0.0000000000000000e+00  1.1491971566027050e-03  2.2852601699534401e-03  3.3959395130207562e-03  4.4692323687076357e-03  5.4935040412909964e-03  6.4576108549512391e-03  7.3510222074114175e-03  8.1639397705564401e-03  8.8874119667623052e-03  9.5134418100538132e-03  1.0035086099442182e-02  1.0446543884025728e-02  1.0743232144924857e-02  1.0921846786457941e-02  1.0980407303946168e-02  1.0918283886784102e-02  1.0736206198510534e-02  1.0436253616783410e-02  1.0021827276026438e-02  9.4976047930188032e-03  8.8694790319799911e-03  8.1444826475358927e-03  7.3307004062776928e-03  6.4371714144494654e-03  5.4737833620473689e-03  4.4511607256349254e-03  3.3805485386351900e-03  2.2736928048035215e-03  1.1427178560761868e-03  0.0000000000000000e+00  0.0000000000000000e+00  1.3506493964388663e-03  2.6860053098707042e-03  3.9916354868496165e-03  5.2534033363154931e-03  6.4576108549512443e-03  7.5911420532073460e-03  8.6416051512613577e-03  9.5974716045873140e-03  1.0448209858035599e-02  1.1184411555069076e-02  1.1797907777959043e-02  1.2281872818626400e-02  1.2630913021719049e-02  1.2841138425797037e-02  1.2910215259768666e-02  1.2837397816796565e-02  1.2623538798775823e-02  1.2271077862072297e-02  1.1784008753523678e-02  1.1167826056480715e-02  1.0429453123891399e-02  9.5771532194420163e-03  8.6204261883829261e-03  7.5698931178693925e-03  6.4371714144494715e-03  5.2347425248786255e-03  3.9758141639427702e-03  2.6741784079608159e-03  1.3440664161293110e-03  0.0000000000000000e+00  0.0000000000000000e+00  1.5372952318079532e-03  3.0573117297073406e-03  4.5435970320056420e-03  5.9800375905055599e-03  7.3510222074114270e-03  8.6416051512613629e-03  9.8376674947126125e-03  1.0926074779301040e-02  1.1894828758262933e-02  1.2733210672841897e-02  1.3431913299909016e-02  1.3983158905667889e-02  1.4380800284714182e-02  1.4620402274992910e-02  1.4699301518774823e-02  1.4616642771310185e-02  1.4373390710128109e-02  1.3972316924537294e-02  1.3417962514476264e-02  1.2716577445497670e-02  1.1876038439893774e-02  1.0905747687580425e-02  9.8165150002769621e-03  8.6204261883829226e-03  7.3307004062776893e-03  5.9615389981531753e-03  4.5279680082347699e-03  3.0456760414355835e-03  1.5308486495322125e-03  0.0000000000000000e+00  0.0000000000000000e+00  1.7070930225078318e-03  3.3951158871482956e-03  5.0457794700467249e-03  6.6411716882236833e-03  8.1639397705564540e-03  9.5974716045873296e-03  1.0926074779301036e-02  1.2135151413009214e-02  1.3211366387782928e-02  1.4142806223449045e-02  1.4919125545073167e-02  1.5531677963480331e-02  1.5973628228460494e-02  1.6240042745122786e-02  1.6327955964113034e-02  1.6236410746439205e-02  1.5966471527051988e-02  1.5521209908439478e-02  1.4905663148179002e-02  1.4126766801594182e-02  1.3193263484178975e-02  1.2115590278293148e-02  1.0905747687580415e-02  9.5771532194420059e-03  8.1444826475358841e-03  6.6235017883317128e-03  5.0308912532027843e-03  3.3840661657300024e-03  1.7009923402590936e-03  0.0000000000000000e+00  0.0000000000000000e+00  1.8581765020917482e-03  3.6957037937408906e-03  5.4926590297229858e-03  7.2295295525045995e-03  8.8874119667623225e-03  1.0448209858035625e-02  1.1894828758262949e-02  1.3211366387782938e-02  1.4383295668089303e-02  1.5397637545776031e-02  1.6243120339447678e-02  1.6910322158355445e-02  1.7391792974937158e-02  1.7682153178785343e-02  1.7778165893725249e-02  1.7678780980170197e-02  1.7385149431508363e-02  1.6900607751608034e-02  1.6230632807198168e-02  1.5382768517408805e-02  1.4366526509856611e-02  1.3193263484179001e-02  1.1876038439893766e-02  1.0429453123891388e-02  8.8694790319799842e-03  7.2132740779372907e-03  5.4789916622100263e-03  3.6855843892920209e-03  1.8526041716749831e-03  0.0000000000000000e+00  0.0000000000000000e+00  1.9888781077168098e-03  3.9557570104954880e-03  5.8793005273236028e-03  7.7386107782991074e-03  9.5134418100538409e-03  1.1184411555069097e-02  1.2733210672841909e-02  1.4142806223449050e-02  1.5397637545776034e-02  1.6483801212934111e-02  1.7389221570911537e-02  1.8103803179915969e-02  1.8619561504741838e-02  1.8930728456969349e-02  1.9033829873842410e-02  1.8927732701651354e-02  1.8613660491927662e-02  1.8095176758350064e-02  1.7378136712988355e-02  1.6470608831194396e-02  1.5382768517408805e-02  1.4126766801594198e-02  1.2716577445497680e-02  1.1167826056480715e-02  9.4976047930187997e-03  7.7242760212457243e-03  5.8672678880843385e-03  3.9468642731116865e-03  1.9839910396785027e-03  0.0000000000000000e+00  0.0000000000000000e+00  2.0977501264368846e-03  4.1723945226115663e-03  6.2014192620011488e-03  8.1627716725119984e-03  1.0035086099442193e-02  1.1797907777959063e-02  1.3431913299909035e-02  1.4919125545073181e-02  1.6243120339447685e-02  1.7389221570911537e-02  1.8344681098106632e-02  1.9098839583437111e-02  1.9643264402451528e-02  1.9971861046858275e-02  2.0080954942752090e-02  1.9969341323158720e-02  1.9638301678785872e-02  1.9091586301206762e-02  1.8335363456846471e-02  1.7378136712988355e-02  1.6230632807198178e-02  1.4905663148179029e-02  1.3417962514476300e-02  1.1784008753523685e-02  1.0021827276026444e-02  8.1507839115424578e-03  6.1913692834746833e-03  4.1649773356872768e-03  2.0936800693415990e-03  0.0000000000000000e+00  0.0000000000000000e+00  2.1835834037996558e-03  4.3432098649623932e-03  6.4554360214405205e-03  8.4972974207173872e-03  1.0446543884025753e-02  1.2281872818626416e-02  1.3983158905667901e-02  1.5531677963480341e-02  1.6910322158355456e-02  1.8103803179915966e-02  1.9098839583437111e-02  1.9884324282910718e-02  2.0451468195577478e-02  2.0793916309785481e-02  2.0907832969181597e-02  2.0791953910312369e-02  2.0447603509907850e-02  1.9878676728232188e-02  1.9091586301206786e-02  1.8095176758350082e-02  1.6900607751608055e-02  1.5521209908439514e-02  1.3972316924537324e-02  1.2271077862072309e-02  1.0436253616783431e-02  8.4880012838384235e-03  6.4476497319257194e-03  4.3374691483115263e-03  2.1804367158712551e-03  0.0000000000000000e+00  0.0000000000000000e+00  2.2454232722611996e-03  4.4663027670034071e-03  6.6385240313452266e-03  8.7384637625437366e-03  1.0743232144924874e-02  1.2630913021719068e-02  1.4380800284714189e-02  1.5973628228460501e-02  1.7391792974937176e-02  1.8619561504741852e-02  1.9643264402451538e-02  2.0451468195577468e-02  2.1035123179909875e-02  2.1387682898898808e-02  2.1505191977173103e-02  2.1386339770758340e-02  2.1032478240023030e-02  2.0447603509907823e-02  1.9638301678785872e-02  1.8613660491927673e-02  1.7385149431508380e-02  1.5966471527052030e-02  1.4373390710128151e-02  1.2623538798775827e-02  1.0736206198510545e-02  8.7321201700951371e-03  6.6332140836309868e-03  4.4623905153134014e-03  2.2432804195296591e-03  0.0000000000000000e+00  0.0000000000000000e+00  2.2825823458566047e-03  4.5403045912268472e-03  6.7486467303753449e-03  8.8835866578323534e-03  1.0921846786457952e-02  1.2841138425797044e-02  1.4620402274992911e-02  1.6240042745122796e-02  1.7682153178785354e-02  1.8930728456969362e-02  1.9971861046858285e-02  2.0793916309785471e-02  2.1387682898898811e-02  2.1746494352056136e-02  2.1866318523584588e-02  2.1745812271075006e-02  2.1386339770758340e-02  2.0791953910312338e-02  1.9969341323158703e-02  1.8927732701651351e-02  1.7678780980170204e-02  1.6236410746439226e-02  1.4616642771310201e-02  1.2837397816796565e-02  1.0918283886784104e-02  8.8803708465787969e-03  6.7459559003836007e-03  4.5383228415656332e-03  2.2814973519725049e-03  0.0000000000000000e+00  0.0000000000000000e+00  2.2946498655261726e-03  4.5643969258865975e-03  6.7845853990069049e-03  8.9310586377265317e-03  1.0980407303946173e-02  1.2910215259768673e-02  1.4699301518774821e-02  1.6327955964113038e-02  1.7778165893725273e-02  1.9033829873842421e-02  2.0080954942752100e-02  2.0907832969181597e-02  2.1505191977173110e-02  2.1866318523584588e-02  2.1987147752322245e-02  2.1866318523584592e-02  2.1505191977173082e-02  2.0907832969181556e-02  2.0080954942752065e-02  1.9033829873842400e-02  1.7778165893725238e-02  1.6327955964113027e-02  1.4699301518774811e-02  1.2910215259768654e-02  1.0980407303946164e-02  8.9310586377265282e-03  6.7845853990068988e-03  4.5643969258865914e-03  2.2946498655261683e-03  0.0000000000000000e+00  0.0000000000000000e+00  2.2814973519725066e-03  4.5383228415656332e-03  6.7459559003836024e-03  8.8803708465787952e-03  1.0918283886784098e-02  1.2837397816796570e-02  1.4616642771310192e-02  1.6236410746439212e-02  1.7678780980170204e-02  1.8927732701651365e-02  1.9969341323158731e-02  2.0791953910312376e-02  2.1386339770758364e-02  2.1745812271075009e-02  2.1866318523584585e-02  2.1746494352056112e-02  2.1387682898898749e-02  2.0793916309785419e-02  1.9971861046858230e-02  1.8930728456969314e-02  1.7682153178785319e-02  1.6240042745122783e-02  1.4620402274992896e-02  1.2841138425797011e-02  1.0921846786457920e-02  8.8835866578323361e-03  6.7486467303753397e-03  4.5403045912268359e-03  2.2825823458565986e-03  0.0000000000000000e+00  0.0000000000000000e+00  2.2432804195296609e-03  4.4623905153134023e-03  6.6332140836309842e-03  8.7321201700951284e-03  1.0736206198510541e-02  1.2623538798775825e-02  1.4373390710128111e-02  1.5966471527051995e-02  1.7385149431508377e-02  1.8613660491927687e-02  1.9638301678785889e-02  2.0447603509907868e-02  2.1032478240023026e-02  2.1386339770758364e-02  2.1505191977173085e-02  2.1387682898898783e-02  2.1035123179909822e-02  2.0451468195577405e-02  1.9643264402451469e-02  1.8619561504741779e-02  1.7391792974937134e-02  1.5973628228460487e-02  1.4380800284714158e-02  1.2630913021719023e-02  1.0743232144924833e-02  8.7384637625437123e-03  6.6385240313452058e-03  4.4663027670033932e-03  2.2454232722611918e-03  0.0000000000000000e+00  0.0000000000000000e+00  2.1804367158712559e-03  4.3374691483115246e-03  6.4476497319257160e-03  8.4880012838384200e-03  1.0436253616783422e-02  1.2271077862072304e-02  1.3972316924537294e-02  1.5521209908439486e-02  1.6900607751608059e-02  1.8095176758350082e-02  1.9091586301206779e-02  1.9878676728232202e-02  2.0447603509907857e-02  2.0791953910312352e-02  2.0907832969181556e-02  2.0793916309785426e-02  2.0451468195577409e-02  1.9884324282910655e-02  1.9098839583437048e-02  1.8103803179915910e-02  1.6910322158355411e-02  1.5531677963480312e-02  1.3983158905667868e-02  1.2281872818626373e-02  1.0446543884025702e-02  8.4972974207173542e-03  6.4554360214404980e-03  4.3432098649623775e-03  2.1835834037996476e-03  0.0000000000000000e+00  0.0000000000000000e+00  2.0936800693416016e-03  4.1649773356872795e-03  6.1913692834746816e-03  8.1507839115424665e-03  1.0021827276026452e-02  1.1784008753523702e-02  1.3417962514476290e-02  1.4905663148179019e-02  1.6230632807198178e-02  1.7378136712988355e-02  1.8335363456846485e-02  1.9091586301206796e-02  1.9638301678785903e-02  1.9969341323158717e-02  2.0080954942752065e-02  1.9971861046858243e-02  1.9643264402451482e-02  1.9098839583437052e-02  1.8344681098106577e-02  1.7389221570911495e-02  1.6243120339447661e-02  1.4919125545073167e-02  1.3431913299909016e-02  1.1797907777959025e-02  1.0035086099442156e-02  8.1627716725119672e-03  6.2014192620011288e-03  4.1723945226115498e-03  2.0977501264368768e-03  0.0000000000000000e+00  0.0000000000000000e+00  1.9839910396785058e-03  3.9468642731116900e-03  5.8672678880843437e-03  7.7242760212457304e-03  9.4976047930188118e-03  1.1167826056480729e-02  1.2716577445497689e-02  1.4126766801594191e-02  1.5382768517408807e-02  1.6470608831194403e-02  1.7378136712988358e-02  1.8095176758350092e-02  1.8613660491927690e-02  1.8927732701651358e-02  1.9033829873842393e-02  1.8930728456969328e-02  1.8619561504741807e-02  1.8103803179915903e-02  1.7389221570911498e-02  1.6483801212934093e-02  1.5397637545776027e-02  1.4142806223449052e-02  1.2733210672841911e-02  1.1184411555069067e-02  9.5134418100538080e-03  7.7386107782990848e-03  5.8793005273235829e-03  3.9557570104954759e-03  1.9888781077168050e-03  0.0000000000000000e+00  0.0000000000000000e+00  1.8526041716749864e-03  3.6855843892920287e-03  5.4789916622100367e-03  7.2132740779372942e-03  8.8694790319799911e-03  1.0429453123891404e-02  1.1876038439893776e-02  1.3193263484178982e-02  1.4366526509856616e-02  1.5382768517408810e-02  1.6230632807198171e-02  1.6900607751608055e-02  1.7385149431508394e-02  1.7678780980170207e-02  1.7778165893725242e-02  1.7682153178785333e-02  1.7391792974937138e-02  1.6910322158355393e-02  1.6243120339447657e-02  1.5397637545776038e-02  1.4383295668089314e-02  1.3211366387782952e-02  1.1894828758262943e-02  1.0448209858035606e-02  8.8874119667623069e-03  7.2295295525045848e-03  5.4926590297229728e-03  3.6957037937408832e-03  1.8581765020917451e-03  0.0000000000000000e+00  0.0000000000000000e+00  1.7009923402590975e-03  3.3840661657300094e-03  5.0308912532027981e-03  6.6235017883317223e-03  8.1444826475358893e-03  9.5771532194420233e-03  1.0905747687580436e-02  1.2115590278293150e-02  1.3193263484178989e-02  1.4126766801594196e-02  1.4905663148179009e-02  1.5521209908439498e-02  1.5966471527052016e-02  1.6236410746439223e-02  1.6327955964113038e-02  1.6240042745122786e-02  1.5973628228460494e-02  1.5531677963480310e-02  1.4919125545073167e-02  1.4142806223449052e-02  1.3211366387782952e-02  1.2135151413009238e-02  1.0926074779301050e-02  9.5974716045873244e-03  8.1639397705564505e-03  6.6411716882236807e-03  5.0457794700467205e-03  3.3951158871482934e-03  1.7070930225078316e-03  0.0000000000000000e+00  0.0000000000000000e+00  1.5308486495322138e-03  3.0456760414355874e-03  4.5279680082347760e-03  5.9615389981531840e-03  7.3307004062776954e-03  8.6204261883829278e-03  9.8165150002769708e-03  1.0905747687580422e-02  1.1876038439893771e-02  1.2716577445497684e-02  1.3417962514476285e-02  1.3972316924537298e-02  1.4373390710128116e-02  1.4616642771310199e-02  1.4699301518774816e-02  1.4620402274992892e-02  1.4380800284714159e-02  1.3983158905667868e-02  1.3431913299909020e-02  1.2733210672841902e-02  1.1894828758262931e-02  1.0926074779301046e-02  9.8376674947126212e-03  8.6416051512613681e-03  7.3510222074114270e-03  5.9800375905055599e-03  4.5435970320056394e-03  3.0573117297073380e-03  1.5372952318079530e-03  0.0000000000000000e+00  0.0000000000000000e+00  1.3440664161293114e-03  2.6741784079608154e-03  3.9758141639427685e-03  5.2347425248786220e-03  6.4371714144494671e-03  7.5698931178693951e-03  8.6204261883829243e-03  9.5771532194420077e-03  1.0429453123891390e-02  1.1167826056480711e-02  1.1784008753523681e-02  1.2271077862072299e-02  1.2623538798775813e-02  1.2837397816796560e-02  1.2910215259768648e-02  1.2841138425797007e-02  1.2630913021719023e-02  1.2281872818626373e-02  1.1797907777959029e-02  1.1184411555069067e-02  1.0448209858035597e-02  9.5974716045873244e-03  8.6416051512613681e-03  7.5911420532073530e-03  6.4576108549512434e-03  5.2534033363154922e-03  3.9916354868496130e-03  2.6860053098707029e-03  1.3506493964388665e-03  0.0000000000000000e+00  0.0000000000000000e+00  1.1427178560761871e-03  2.2736928048035219e-03  3.3805485386351917e-03  4.4511607256349254e-03  5.4737833620473698e-03  6.4371714144494750e-03  7.3307004062776937e-03  8.1444826475358823e-03  8.8694790319799877e-03  9.4976047930188032e-03  1.0021827276026438e-02  1.0436253616783421e-02  1.0736206198510526e-02  1.0918283886784091e-02  1.0980407303946152e-02  1.0921846786457905e-02  1.0743232144924826e-02  1.0446543884025706e-02  1.0035086099442168e-02  9.5134418100538132e-03  8.8874119667623052e-03  8.1639397705564522e-03  7.3510222074114227e-03  6.4576108549512495e-03  5.4935040412909999e-03  4.4692323687076409e-03  3.3959395130207588e-03  2.2852601699534414e-03  1.1491971566027059e-03  0.0000000000000000e+00  0.0000000000000000e+00  9.2903227809455042e-04  1.8486495849880408e-03  2.7487492366133140e-03  3.6194435054648583e-03  4.4511607256349254e-03  5.2347425248786264e-03  5.9615389981531805e-03  6.6235017883317119e-03  7.2132740779372873e-03  7.7242760212457235e-03  8.1507839115424509e-03  8.4880012838384165e-03  8.7321201700951197e-03  8.8803708465787848e-03  8.9310586377265126e-03  8.8835866578323239e-03  8.7384637625437054e-03  8.4972974207173507e-03  8.1627716725119707e-03  7.7386107782990892e-03  7.2295295525045891e-03  6.6411716882236807e-03  5.9800375905055