<?xml version="1.0"?>
<VTKFile type="UnstructuredGrid"  version="0.1"  >
<UnstructuredGrid>
<Piece  NumberOfPoints="961" NumberOfCells="1800">
<Points>
<DataArray  type="Float64"  NumberOfComponents="3"  format="ascii">-2 -2 0  -1.866666666666667 -2 0  -1.733333333333333 -2 0  -1.6 -2 0  -1.466666666666667 -2 0  -1.333333333333333 -2 0  -1.2 -2 0  -1.066666666666667 -2 0  -0.9333333333333333 -2 0  -0.8 -2 0  -0.6666666666666667 -2 0  -0.5333333333333334 -2 0  -0.3999999999999999 -2 0  -0.2666666666666666 -2 0  -0.1333333333333333 -2 0  0 -2 0  0.1333333333333333 -2 0  0.2666666666666666 -2 0  0.3999999999999999 -2 0  0.5333333333333332 -2 0  0.6666666666666665 -2 0  0.7999999999999998 -2 0  0.9333333333333331 -2 0  1.066666666666667 -2 0  1.2 -2 0  1.333333333333333 -2 0  1.466666666666667 -2 0  1.6 -2 0  1.733333333333333 -2 0  1.866666666666667 -2 0  2 -2 0  -2 -1.866666666666667 0  -1.866666666666667 -1.866666666666667 0  -1.733333333333333 -1.866666666666667 0  -1.6 -1.866666666666667 0  -1.466666666666667 -1.866666666666667 0  -1.333333333333333 -1.866666666666667 0  -1.2 -1.866666666666667 0  -1.066666666666667 -1.866666666666667 0  -0.9333333333333333 -1.866666666666667 0  -0.8 -1.866666666666667 0  -0.6666666666666667 -1.866666666666667 0  -0.5333333333333334 -1.866666666666667 0  -0.3999999999999999 -1.866666666666667 0  -0.2666666666666666 -1.866666666666667 0  -0.1333333333333333 -1.866666666666667 0  0 -1.866666666666667 0  0.1333333333333333 -1.866666666666667 0  0.2666666666666666 -1.866666666666667 0  0.3999999999999999 -1.866666666666667 0  0.5333333333333332 -1.866666666666667 0  0.6666666666666665 -1.866666666666667 0  0.7999999999999998 -1.866666666666667 0  0.9333333333333331 -1.866666666666667 0  1.066666666666667 -1.866666666666667 0  1.2 -1.866666666666667 0  1.333333333333333 -1.866666666666667 0  1.466666666666667 -1.866666666666667 0  1.6 -1.866666666666667 0  1.733333333333333 -1.866666666666667 0  1.866666666666667 -1.866666666666667 0  2 -1.866666666666667 0  -2 -1.733333333333333 0  -1.866666666666667 -1.733333333333333 0  -1.733333333333333 -1.733333333333333 0  -1.6 -1.733333333333333 0  -1.466666666666667 -1.733333333333333 0  -1.333333333333333 -1.733333333333333 0  -1.2 -1.733333333333333 0  -1.066666666666667 -1.733333333333333 0  -0.9333333333333333 -1.733333333333333 0  -0.8 -1.733333333333333 0  -0.6666666666666667 -1.733333333333333 0  -0.5333333333333334 -1.733333333333333 0  -0.3999999999999999 -1.733333333333333 0  -0.2666666666666666 -1.733333333333333 0  -0.1333333333333333 -1.733333333333333 0  0 -1.733333333333333 0  0.1333333333333333 -1.733333333333333 0  0.2666666666666666 -1.733333333333333 0  0.3999999999999999 -1.733333333333333 0  0.5333333333333332 -1.733333333333333 0  0.6666666666666665 -1.733333333333333 0  0.7999999999999998 -1.733333333333333 0  0.9333333333333331 -1.733333333333333 0  1.066666666666667 -1.733333333333333 0  1.2 -1.733333333333333 0  1.333333333333333 -1.733333333333333 0  1.466666666666667 -1.733333333333333 0  1.6 -1.733333333333333 0  1.733333333333333 -1.733333333333333 0  1.866666666666667 -1.733333333333333 0  2 -1.733333333333333 0  -2 -1.6 0  -1.866666666666667 -1.6 0  -1.733333333333333 -1.6 0  -1.6 -1.6 0  -1.466666666666667 -1.6 0  -1.333333333333333 -1.6 0  -1.2 -1.6 0  -1.066666666666667 -1.6 0  -0.9333333333333333 -1.6 0  -0.8 -1.6 0  -0.6666666666666667 -1.6 0  -0.5333333333333334 -1.6 0  -0.3999999999999999 -1.6 0  -0.2666666666666666 -1.6 0  -0.1333333333333333 -1.6 0  0 -1.6 0  0.1333333333333333 -1.6 0  0.2666666666666666 -1.6 0  0.3999999999999999 -1.6 0  0.5333333333333332 -1.6 0  0.6666666666666665 -1.6 0  0.7999999999999998 -1.6 0  0.9333333333333331 -1.6 0  1.066666666666667 -1.6 0  1.2 -1.6 0  1.333333333333333 -1.6 0  1.466666666666667 -1.6 0  1.6 -1.6 0  1.733333333333333 -1.6 0  1.866666666666667 -1.6 0  2 -1.6 0  -2 -1.466666666666667 0  -1.866666666666667 -1.466666666666667 0  -1.733333333333333 -1.466666666666667 0  -1.6 -1.466666666666667 0  -1.466666666666667 -1.466666666666667 0  -1.333333333333333 -1.466666666666667 0  -1.2 -1.466666666666667 0  -1.066666666666667 -1.466666666666667 0  -0.9333333333333333 -1.466666666666667 0  -0.8 -1.466666666666667 0  -0.6666666666666667 -1.466666666666667 0  -0.5333333333333334 -1.466666666666667 0  -0.3999999999999999 -1.466666666666667 0  -0.2666666666666666 -1.466666666666667 0  -0.1333333333333333 -1.466666666666667 0  0 -1.466666666666667 0  0.1333333333333333 -1.466666666666667 0  0.2666666666666666 -1.466666666666667 0  0.3999999999999999 -1.466666666666667 0  0.5333333333333332 -1.466666666666667 0  0.6666666666666665 -1.466666666666667 0  0.7999999999999998 -1.466666666666667 0  0.9333333333333331 -1.466666666666667 0  1.066666666666667 -1.466666666666667 0  1.2 -1.466666666666667 0  1.333333333333333 -1.466666666666667 0  1.466666666666667 -1.466666666666667 0  1.6 -1.466666666666667 0  1.733333333333333 -1.466666666666667 0  1.866666666666667 -1.466666666666667 0  2 -1.466666666666667 0  -2 -1.333333333333333 0  -1.866666666666667 -1.333333333333333 0  -1.733333333333333 -1.333333333333333 0  -1.6 -1.333333333333333 0  -1.466666666666667 -1.333333333333333 0  -1.333333333333333 -1.333333333333333 0  -1.2 -1.333333333333333 0  -1.066666666666667 -1.333333333333333 0  -0.9333333333333333 -1.333333333333333 0  -0.8 -1.333333333333333 0  -0.6666666666666667 -1.333333333333333 0  -0.5333333333333334 -1.333333333333333 0  -0.3999999999999999 -1.333333333333333 0  -0.2666666666666666 -1.333333333333333 0  -0.1333333333333333 -1.333333333333333 0  0 -1.333333333333333 0  0.1333333333333333 -1.333333333333333 0  0.2666666666666666 -1.333333333333333 0  0.3999999999999999 -1.333333333333333 0  0.5333333333333332 -1.333333333333333 0  0.6666666666666665 -1.333333333333333 0  0.7999999999999998 -1.333333333333333 0  0.9333333333333331 -1.333333333333333 0  1.066666666666667 -1.333333333333333 0  1.2 -1.333333333333333 0  1.333333333333333 -1.333333333333333 0  1.466666666666667 -1.333333333333333 0  1.6 -1.333333333333333 0  1.733333333333333 -1.333333333333333 0  1.866666666666667 -1.333333333333333 0  2 -1.333333333333333 0  -2 -1.2 0  -1.866666666666667 -1.2 0  -1.733333333333333 -1.2 0  -1.6 -1.2 0  -1.466666666666667 -1.2 0  -1.333333333333333 -1.2 0  -1.2 -1.2 0  -1.066666666666667 -1.2 0  -0.9333333333333333 -1.2 0  -0.8 -1.2 0  -0.6666666666666667 -1.2 0  -0.5333333333333334 -1.2 0  -0.3999999999999999 -1.2 0  -0.2666666666666666 -1.2 0  -0.1333333333333333 -1.2 0  0 -1.2 0  0.1333333333333333 -1.2 0  0.2666666666666666 -1.2 0  0.3999999999999999 -1.2 0  0.5333333333333332 -1.2 0  0.6666666666666665 -1.2 0  0.7999999999999998 -1.2 0  0.9333333333333331 -1.2 0  1.066666666666667 -1.2 0  1.2 -1.2 0  1.333333333333333 -1.2 0  1.466666666666667 -1.2 0  1.6 -1.2 0  1.733333333333333 -1.2 0  1.866666666666667 -1.2 0  2 -1.2 0  -2 -1.066666666666667 0  -1.866666666666667 -1.066666666666667 0  -1.733333333333333 -1.066666666666667 0  -1.6 -1.066666666666667 0  -1.466666666666667 -1.066666666666667 0  -1.333333333333333 -1.066666666666667 0  -1.2 -1.066666666666667 0  -1.066666666666667 -1.066666666666667 0  -0.9333333333333333 -1.066666666666667 0  -0.8 -1.066666666666667 0  -0.6666666666666667 -1.066666666666667 0  -0.5333333333333334 -1.066666666666667 0  -0.3999999999999999 -1.066666666666667 0  -0.2666666666666666 -1.066666666666667 0  -0.1333333333333333 -1.066666666666667 0  0 -1.066666666666667 0  0.1333333333333333 -1.066666666666667 0  0.2666666666666666 -1.066666666666667 0  0.3999999999999999 -1.066666666666667 0  0.5333333333333332 -1.066666666666667 0  0.6666666666666665 -1.066666666666667 0  0.7999999999999998 -1.066666666666667 0  0.9333333333333331 -1.066666666666667 0  1.066666666666667 -1.066666666666667 0  1.2 -1.066666666666667 0  1.333333333333333 -1.066666666666667 0  1.466666666666667 -1.066666666666667 0  1.6 -1.066666666666667 0  1.733333333333333 -1.066666666666667 0  1.866666666666667 -1.066666666666667 0  2 -1.066666666666667 0  -2 -0.9333333333333333 0  -1.866666666666667 -0.9333333333333333 0  -1.733333333333333 -0.9333333333333333 0  -1.6 -0.9333333333333333 0  -1.466666666666667 -0.9333333333333333 0  -1.333333333333333 -0.9333333333333333 0  -1.2 -0.9333333333333333 0  -1.066666666666667 -0.9333333333333333 0  -0.9333333333333333 -0.9333333333333333 0  -0.8 -0.9333333333333333 0  -0.6666666666666667 -0.9333333333333333 0  -0.5333333333333334 -0.9333333333333333 0  -0.3999999999999999 -0.9333333333333333 0  -0.2666666666666666 -0.9333333333333333 0  -0.1333333333333333 -0.9333333333333333 0  0 -0.9333333333333333 0  0.1333333333333333 -0.9333333333333333 0  0.2666666666666666 -0.9333333333333333 0  0.3999999999999999 -0.9333333333333333 0  0.5333333333333332 -0.9333333333333333 0  0.6666666666666665 -0.9333333333333333 0  0.7999999999999998 -0.9333333333333333 0  0.9333333333333331 -0.9333333333333333 0  1.066666666666667 -0.9333333333333333 0  1.2 -0.9333333333333333 0  1.333333333333333 -0.9333333333333333 0  1.466666666666667 -0.9333333333333333 0  1.6 -0.9333333333333333 0  1.733333333333333 -0.9333333333333333 0  1.866666666666667 -0.9333333333333333 0  2 -0.9333333333333333 0  -2 -0.8 0  -1.866666666666667 -0.8 0  -1.733333333333333 -0.8 0  -1.6 -0.8 0  -1.466666666666667 -0.8 0  -1.333333333333333 -0.8 0  -1.2 -0.8 0  -1.066666666666667 -0.8 0  -0.9333333333333333 -0.8 0  -0.8 -0.8 0  -0.6666666666666667 -0.8 0  -0.5333333333333334 -0.8 0  -0.3999999999999999 -0.8 0  -0.2666666666666666 -0.8 0  -0.1333333333333333 -0.8 0  0 -0.8 0  0.1333333333333333 -0.8 0  0.2666666666666666 -0.8 0  0.3999999999999999 -0.8 0  0.5333333333333332 -0.8 0  0.6666666666666665 -0.8 0  0.7999999999999998 -0.8 0  0.9333333333333331 -0.8 0  1.066666666666667 -0.8 0  1.2 -0.8 0  1.333333333333333 -0.8 0  1.466666666666667 -0.8 0  1.6 -0.8 0  1.733333333333333 -0.8 0  1.866666666666667 -0.8 0  2 -0.8 0  -2 -0.6666666666666667 0  -1.866666666666667 -0.
[...]
<PointData  Scalars="f_468"> 
<DataArray  type="Float64"  Name="f_468"  format="ascii">0.0000000000000000e+00  0.0000000000000000e+00  0.0000000000000000e+00  0.0000000000000000e+00  0.0000000000000000e+00  0.0000000000000000e+00  0.0000000000000000e+00  0.0000000000000000e+00  0.0000000000000000e+00  0.0000000000000000e+00  0.0000000000000000e+00  0.0000000000000000e+00  0.0000000000000000e+00  0.0000000000000000e+00  0.0000000000000000e+00  0.0000000000000000e+00  0.0000000000000000e+00  0.0000000000000000e+00  0.0000000000000000e+00  0.0000000000000000e+00  0.0000000000000000e+00  0.0000000000000000e+00  0.0000000000000000e+00  0.0000000000000000e+00  0.0000000000000000e+00  0.0000000000000000e+00  0.0000000000000000e+00  0.0000000000000000e+00  0.0000000000000000e+00  0.0000000000000000e+00  0.0000000000000000e+00  0.0000000000000000e+00  1.3187040920307212e-06  3.5420668670010632e-06  7.7293931957086871e-06  1.5578139312595228e-05  2.9636172178045275e-05  5.3367488383623039e-05  9.0871035305987305e-05  1.4606128453722544e-04  2.2126343031389590e-04  3.1547930431452531e-04  4.2294517753436843e-04  5.3280481360206018e-04  6.3052075277006436e-04  7.0098888944097090e-04  7.3246964658890061e-04  7.1989084152262930e-04  6.6620678515449179e-04  5.8130725557007409e-04  4.7901867862532797e-04  3.7345212364293462e-04  2.7600137968375585e-04  1.9377302845706681e-04  1.2951700141354661e-04  8.2596507717009636e-05  5.0359100013777598e-05  2.9389703059991548e-05  1.6374282806255383e-05  8.5272627528544454e-06  3.6615234595327537e-06  0.0000000000000000e+00  0.0000000000000000e+00  3.5420668670010627e-06  9.4143460307625949e-06  2.0439869104524610e-05  4.1063336305320245e-05  7.7921450872756232e-05  1.4000299562417403e-04  2.3789319043681503e-04  3.8161380217542493e-04  5.7695000317425178e-04  8.2094999831020280e-04  1.0982339155620805e-03  1.3802618506311645e-03  1.6291605580435354e-03  1.8059606204397140e-03  1.8808606558236042e-03  1.8417047908299170e-03  1.6972619034649203e-03  1.4740771632814260e-03  1.2084336267738690e-03  9.3678560312749574e-04  6.8807048134725409e-04  4.7986548044680577e-04  3.1846066916976057e-04  2.0156020115024646e-04  1.2191581290937268e-04  7.0558449233215946e-05  3.8966854855549147e-05  2.0098442386081048e-05  8.5272627528544454e-06  0.0000000000000000e+00  0.0000000000000000e+00  7.7293931957086888e-06  2.0439869104524617e-05  4.4280862978108932e-05  8.8863586199833133e-05  1.6850917742551399e-04  3.0258545085507736e-04  5.1384460485766445e-04  8.2370808795105359e-04  1.2442755126443250e-03  1.7685751549844037e-03  2.3626493740686663e-03  2.9641717454556068e-03  3.4910448115007772e-03  3.8595493700434263e-03  4.0067032658294898e-03  3.9084149075917871e-03  3.5860347383526790e-03  3.0988302809785602e-03  2.5260183334471567e-03  1.9458821194946341e-03  1.4194023228825991e-03  9.8250215648959852e-04  6.4680253353255487e-04  4.0588392277942975e-04  2.4329887671231429e-04  1.3949009643158549e-04  7.6292337188034351e-05  3.8966854855549141e-05  1.6374282806255383e-05  0.0000000000000000e+00  0.0000000000000000e+00  1.5578139312595232e-05  4.1063336305320252e-05  8.8863586199833161e-05  1.7829400260268395e-04  3.3811776073698494e-04  6.0722776789270949e-04  1.0312753925469404e-03  1.6531110713455704e-03  2.4965876089122667e-03  3.5468283679553382e-03  4.7343054587632568e-03  5.9323178546769658e-03  6.9748604129688451e-03  7.6938638139451591e-03  7.9646866231424633e-03  7.7425277821179788e-03  7.0747328999064586e-03  6.0843004745869712e-03  4.9324981046333771e-03  3.7763006572060897e-03  2.7357987309967863e-03  1.8795826477762758e-03  1.2273984500579739e-03  7.6358673139227315e-04  4.5354614780753648e-04  2.5755462324005191e-04  1.3949009643158552e-04  7.0558449233215932e-05  2.9389703059991545e-05  0.0000000000000000e+00  0.0000000000000000e+00  2.9636172178045278e-05  7.7921450872756246e-05  1.6850917742551401e-04  3.3811776073698515e-04  6.4143560044339996e-04  1.1524607709549736e-03  1.9580811400790048e-03  3.1397800269577091e-03  4.7425724986663058e-03  6.7371264776979250e-03  8.9892525612998049e-03  1.1255328969531662e-02  1.3217183117457959e-02  1.4554329173728744e-02  1.5031767325376460e-02  1.4569533948623446e-02  1.3264946697396810e-02  1.1358946176247425e-02  9.1626142956697503e-03  6.9748794691651388e-03  5.0207594133893666e-03  3.4250688243142283e-03  2.2194137860289962e-03  1.3692964354679780e-03  8.0614656221234004e-04  4.5354614780753670e-04  2.4329887671231432e-04  1.2191581290937264e-04  5.0359100013777605e-05  0.0000000000000000e+00  0.0000000000000000e+00  5.3367488383623018e-05  1.4000299562417403e-04  3.0258545085507757e-04  6.0722776789270960e-04  1.1524607709549740e-03  2.0717750640328121e-03  3.5221222941511730e-03  5.6508395553421537e-03  8.5392498506176757e-03  1.2133677007036579e-02  1.6189755056070145e-02  2.0264111915191115e-02  2.3778375202401971e-02  2.6151691011159262e-02  2.6961517591799263e-02  2.6070217504343914e-02  2.3663951152566649e-02  2.0188578092802282e-02  1.6213130485463294e-02  1.2278751528841520e-02  8.7871760206550895e-03  5.9554093987577196e-03  3.8313844663891588e-03  2.3454196562222580e-03  1.3692964354679786e-03  7.6358673139227348e-04  4.0588392277942991e-04  2.0156020115024651e-04  8.2596507717009663e-05  0.0000000000000000e+00  0.0000000000000000e+00  9.0871035305987251e-05  2.3789319043681493e-04  5.1384460485766456e-04  1.0312753925469410e-03  1.9580811400790052e-03  3.5221222941511734e-03  5.9918784883761390e-03  9.6200607792959955e-03  1.4546883514680845e-02  2.0681160476283024e-02  2.7603741958083503e-02  3.4552450004844040e-02  4.0532287449489147e-02  4.4544846975733215e-02  4.5867095996099810e-02  4.4270449490147058e-02  4.0086574068820928e-02  3.4093506339555567e-02  2.7276347148633626e-02  2.0564548454535141e-02  1.4640340515404238e-02  9.8638483897095629e-03  6.3041961130142175e-03  3.8313844663891584e-03  2.2194137860289988e-03  1.2273984500579750e-03  6.4680253353255541e-04  3.1846066916976079e-04  1.2951700141354663e-04  0.0000000000000000e+00  0.0000000000000000e+00  1.4606128453722542e-04  3.8161380217542487e-04  8.2370808795105392e-04  1.6531110713455704e-03  3.1397800269577078e-03  5.6508395553421529e-03  9.6200607792959903e-03  1.5457414893559143e-02  2.3392758146759080e-02  3.3282406595463783e-02  4.4450606359922949e-02  5.5662725366472737e-02  6.5302949668872526e-02  7.1748109154689654e-02  7.3824032362625122e-02  7.1164947452054997e-02  6.4320998838343121e-02  5.4569702703062078e-02  4.3521162063765141e-02  3.2686295271613722e-02  2.3164528711465418e-02  1.5525285269134118e-02  9.8638483897095543e-03  5.9554093987577153e-03  3.4250688243142292e-03  1.8795826477762761e-03  9.8250215648959852e-04  4.7986548044680577e-04  1.9377302845706665e-04  0.0000000000000000e+00  0.0000000000000000e+00  2.2126343031389590e-04  5.7695000317425178e-04  1.2442755126443252e-03  2.4965876089122654e-03  4.7425724986663049e-03  8.5392498506176740e-03  1.4546883514680840e-02  2.3392758146759091e-02  3.5433715753499434e-02  5.0459986488465600e-02  6.7449576076996420e-02  8.4522223200241206e-02  9.9207160795297997e-02  1.0901512931755072e-01  1.1214176357574801e-01  1.0802484902162519e-01  9.7513272387672628e-02  8.2576545996244949e-02  6.5693275479255117e-02  4.9182276353865462e-02  3.4720673748627071e-02  2.3164528711465442e-02  1.4640340515404238e-02  8.7871760206550929e-03  5.0207594133893701e-03  2.7357987309967881e-03  1.4194023228826002e-03  6.8807048134725453e-04  2.7600137968375601e-04  0.0000000000000000e+00  0.0000000000000000e+00  3.1547930431452542e-04  8.2094999831020280e-04  1.7685751549844045e-03  3.5468283679553386e-03  6.7371264776979242e-03  1.2133677007036580e-02  2.0681160476283020e-02  3.3282406595463783e-02  5.0459986488465620e-02  7.1930407329692442e-02  9.6246128034643136e-02  1.2072047092813588e-01  1.4180406770993381e-01  1.5590499025401539e-01  1.6040698469620338e-01  1.5448363093458792e-01  1.3935222702660663e-01  1.1785797051340510e-01  9.3586437929967500e-02  6.9889279645358751e-02  4.9182276353865448e-02  3.2686295271613736e-02  2.0564548454535134e-02  1.2278751528841524e-02  6.9748794691651440e-03  3.7763006572060919e-03  1.9458821194946359e-03  9.3678560312749671e-04  3.7345212364293506e-04  0.0000000000000000e+00  0.0000000000000000e+00  4.2294517753436848e-04  1.0982339155620809e-03  2.3626493740686676e-03  4.7343054587632594e-03  8.9892525612998049e-03  1.6189755056070152e-02  2.7603741958083492e-02  4.4450606359922949e-02  6.7449576076996393e-02  9.6246128034643150e-02  1.2892254224926025e-01  1.6188307407414512e-01  1.9034713116006308e-01  2.0944905481951839e-01  2.1561940590876225e-01  2.0770262048556545e-01  1.8731949459394112e-01  1.5831482933092988e-01  1.2555296708988653e-01  9.3586437929967542e-02  6.5693275479255089e-02  4.3521162063765148e-02  2.7276347148633598e-02  1.6213130485463297e-02  9.1626142956697521e-03  4.9324981046333823e-03  2.5260183334471584e-03  1.2084336267738707e-03  4.7901867862532835e-04  0.0000000000000000e+00  0.0000000000000000e+00  5.3280481360206040e-04  1.3802618506311651e-03  2.9641717454556090e-03  5.9323178546769684e-03  1.1255328969531658e-02  2.0264111915191112e-02  3.4552450004844006e-02  5.5662725366472682e-02  8.4522223200241123e-02  1.2072047092813584e-01  1.6188307407414515e-01  2.0350848843601990e-01  2.3956965577472156e-01  2.6389138397193374e-01  2.7190289893535141e-01  2.6207576433852670e-01  2.3641244099473510e-01  1.9976614615262461e-01  1.5831482933092977e-01  1.1785797051340506e-01  8.2576545996244921e-02  5.4569702703062106e-02  3.4093506339555560e-02  2.0188578092802278e-02  1.1358946176247421e-02  6.0843004745869704e-03  3.0988302809785593e-03  1.4740771632814260e-03  5.8130725557007453e-04  0.0000000000000000e+00  0.0000000000000000e+00  6.3052075277006468e-04  1.6291605580435371e-03  3.4910448115007819e-03  6.9748604129688556e-03  1.3217183117457964e-02  2.3778375202401992e-02  4.0532287449489141e-02  6.5302949668872484e-02  9.9207160795297913e-02  1.4180406770993384e-01  1.9034713116006313e-01  2.3956965577472150e-01  2.8236814324002124e-01  3.1141181668044116e-01  3.2121921743282877e-01  3.0988815367225231e-01  2.7971371840266934e-01  2.3641244099473527e-01  1.8731949459394112e-01  1.3935222702660666e-01  9.7513272387672670e-02  6.4320998838343191e-02  4.0086574068820935e-02  2.3663951152566649e-02  1.3264946697396812e-02  7.0747328999064595e-03  3.5860347383526777e-03  1.6972619034649201e-03  6.6620678515449201e-04  0.0000000000000000e+00  0.0000000000000000e+00  7.0098888944097231e-04  1.8059606204397171e-03  3.8595493700434307e-03  7.6938638139451712e-03  1.4554329173728767e-02  2.6151691011159283e-02  4.4544846975733202e-02  7.1748109154689654e-02  1.0901512931755072e-01  1.5590499025401547e-01  2.0944905481951853e-01  2.6389138397193379e-01  3.1141181668044110e-01  3.4387993115826371e-01  3.5515047273579448e-01  3.4300620517600261e-01  3.0988815367225253e-01  2.6207576433852681e-01  2.0770262048556534e-01  1.5448363093458792e-01  1.0802484902162522e-01  7.1164947452055038e-02  4.4270449490147031e-02  2.6070217504343907e-02  1.4569533948623441e-02  7.7425277821179779e-03  3.9084149075917863e-03  1.8417047908299167e-03  7.1989084152262919e-04  0.0000000000000000e+00  0.0000000000000000e+00  7.3246964658890115e-04  1.8808606558236044e-03  4.0067032658294898e-03  7.9646866231424755e-03  1.5031767325376479e-02  2.6961517591799270e-02  4.5867095996099852e-02  7.3824032362625205e-02  1.1214176357574802e-01  1.6040698469620360e-01  2.1561940590876258e-01  2.7190289893535169e-01  3.2121921743282900e-01  3.5515047273579453e-01  3.6726477317836387e-01  3.5515047273579464e-01  3.2121921743282894e-01  2.7190289893535163e-01  2.1561940590876238e-01  1.6040698469620343e-01  1.1214176357574802e-01  7.3824032362625178e-02  4.5867095996099769e-02  2.6961517591799256e-02  1.5031767325376453e-02  7.9646866231424633e-03  4.0067032658294855e-03  1.8808606558236025e-03  7.3246964658890028e-04  0.0000000000000000e+00  0.0000000000000000e+00  7.1989084152262995e-04  1.8417047908299183e-03  3.9084149075917906e-03  7.7425277821179883e-03  1.4569533948623467e-02  2.6070217504343938e-02  4.4270449490147100e-02  7.1164947452055080e-02  1.0802484902162529e-01  1.5448363093458806e-01  2.0770262048556562e-01  2.6207576433852703e-01  3.0988815367225275e-01  3.4300620517600289e-01  3.5515047273579448e-01  3.4387993115826399e-01  3.1141181668044143e-01  2.6389138397193357e-01  2.0944905481951820e-01  1.5590499025401533e-01  1.0901512931755070e-01  7.1748109154689668e-02  4.4544846975733181e-02  2.6151691011159259e-02  1.4554329173728739e-02  7.6938638139451591e-03  3.8595493700434272e-03  1.8059606204397140e-03  7.0098888944097112e-04  0.0000000000000000e+00  0.0000000000000000e+00  6.6620678515449299e-04  1.6972619034649223e-03  3.5860347383526829e-03  7.0747328999064682e-03  1.3264946697396822e-02  2.3663951152566674e-02  4.0086574068820977e-02  6.4320998838343219e-02  9.7513272387672739e-02  1.3935222702660671e-01  1.8731949459394132e-01  2.3641244099473560e-01  2.7971371840266984e-01  3.0988815367225275e-01  3.2121921743282894e-01  3.1141181668044143e-01  2.8236814324002135e-01  2.3956965577472156e-01  1.9034713116006305e-01  1.4180406770993376e-01  9.9207160795297955e-02  6.5302949668872567e-02  4.0532287449489120e-02  2.3778375202401961e-02  1.3217183117457955e-02  6.9748604129688477e-03  3.4910448115007780e-03  1.6291605580435351e-03  6.3052075277006425e-04  0.0000000000000000e+00  0.0000000000000000e+00  5.8130725557007539e-04  1.4740771632814292e-03  3.0988302809785654e-03  6.0843004745869790e-03  1.1358946176247432e-02  2.0188578092802310e-02  3.4093506339555602e-02  5.4569702703062127e-02  8.2576545996245004e-02  1.1785797051340519e-01  1.5831482933093002e-01  1.9976614615262492e-01  2.3641244099473546e-01  2.6207576433852708e-01  2.7190289893535169e-01  2.6389138397193385e-01  2.3956965577472158e-01  2.0350848843601990e-01  1.6188307407414515e-01  1.2072047092813591e-01  8.4522223200241164e-02  5.5662725366472744e-02  3.4552450004844019e-02  2.0264111915191098e-02  1.1255328969531657e-02  5.9323178546769632e-03  2.9641717454556068e-03  1.3802618506311641e-03  5.3280481360206018e-04  0.0000000000000000e+00  0.0000000000000000e+00  4.7901867862532895e-04  1.2084336267738720e-03  2.5260183334471606e-03  4.9324981046333849e-03  9.1626142956697573e-03  1.6213130485463311e-02  2.7276347148633633e-02  4.3521162063765155e-02  6.5693275479255159e-02  9.3586437929967542e-02  1.2555296708988661e-01  1.5831482933093005e-01  1.8731949459394137e-01  2.0770262048556568e-01  2.1561940590876258e-01  2.0944905481951856e-01  1.9034713116006308e-01  1.6188307407414515e-01  1.2892254224926028e-01  9.6246128034643136e-02  6.7449576076996406e-02  4.4450606359922949e-02  2.7603741958083478e-02  1.6189755056070138e-02  8.9892525612997980e-03  4.7343054587632525e-03  2.3626493740686659e-03  1.0982339155620796e-03  4.2294517753436821e-04  0.0000000000000000e+00  0.0000000000000000e+00  3.7345212364293555e-04  9.3678560312749812e-04  1.9458821194946378e-03  3.7763006572060971e-03  6.9748794691651518e-03  1.2278751528841536e-02  2.0564548454535155e-02  3.2686295271613749e-02  4.9182276353865510e-02  6.9889279645358779e-02  9.3586437929967597e-02  1.1785797051340531e-01  1.3935222702660696e-01  1.5448363093458817e-01  1.6040698469620362e-01  1.5590499025401555e-01  1.4180406770993398e-01  1.2072047092813598e-01  9.6246128034643177e-02  7.1930407329692470e-02  5.0459986488465607e-02  3.3282406595463797e-02  2.0681160476283020e-02  1.2133677007036575e-02  6.7371264776979215e-03  3.5468283679553369e-03  1.7685751549844039e-03  8.2094999831020291e-04  3.1547930431452553e-04  0.0000000000000000e+00  0.0000000000000000e+00  2.7600137968375655e-04  6.8807048134725561e-04  1.4194023228826019e-03  2.7357987309967915e-03  5.0207594133893771e-03  8.7871760206551068e-03  1.4640340515404264e-02  2.3164528711465463e-02  3.4720673748627112e-02  4.9182276353865496e-02  6.5693275479255214e-02  8.2576545996245129e-02  9.7513272387672920e-02  1.0802484902162540e-01  1.1214176357574814e-01  1.0901512931755086e-01  9.9207160795298122e-02  8.4522223200241275e-02  6.7449576076996504e-02  5.0459986488465669e-02  3.5433715753499455e-02  2.3392758146759098e-02  1.4546883514680841e-02  8.5392498506176757e-03  4.7425724986663049e-03  2.4965876089122659e-03  1.2442755126443254e-03  5.7695000317425221e-04  2.2126343031389601e-04  0.0000000000000000e+00  0.0000000000000000e+00  1.9377302845706714e-04  4.7986548044680691e-04  9.8250215648960091e-04  1.8795826477762795e-03  3.4250688243142352e-03  5.9554093987577291e-03  9.8638483897095768e-03  1.5525285269134138e-02  2.3164528711465460e-02  3.2686295271613763e-02  4.3521162063765183e-02  5.4569702703062231e-02  6.4320998838343343e-02  7.1164947452055163e-02  7.3824032362625289e-02  7.1748109154689779e-02  6.5302949668872651e-02  5.5662725366472827e-02  4.4450606359923032e-02  3.3282406595463845e-02  2.3392758146759108e-02  1.5457414893559170e-02  9.6200607792959903e-03  5.6508395553421546e-03  3.1397800269577112e-03  1.6531110713455717e-03  8.2370808795105468e-04  3.8161380217542542e-04  1.4606128453722566e-04  0.0000000000000000e+00  0.0000000000000000e+00  1.2951700141354677e-04  3.1846066916976106e-04  6.4680253353255606e-04  1.2273984500579768e-03  2.2194137860290001e-03  3.8313844663891627e-03  6.3041961130142193e-03  9.8638483897095595e-03  1.4640340515404244e-02  2.0564548454535141e-02  2.7276347148633636e-02  3.4093506339555615e-02  4.0086574068820990e-02  4.4270449490147086e-02  4.5867095996099796e-02  4.4544846975733195e-02  4.0532287449489134e-02  3.4552450004844033e-02  2.7603741958083503e-02  2.0681160476283027e-02  1.4546883514680834e-02  9.6200607792959938e-03  5.9918784883761286e-03  3.5221222941511673e-03  1.9580811400790026e-03  1.0312753925469395e-03  5.1384460485766402e-04  2.3789319043681476e-04  9.0871035305987183e-05  0.0000000000000000e+00  0.0000000000000000e+00  8.2596507717009731e-05  2.0156020115024670e-04  4.0588392277943024e-04  7.6358673139227456e-04  1.3692964354679803e-03  2.3454196562222606e-03  3.8313844663891610e-03  5.9554093987577196e-03  8.7871760206550999e-03  1.2278751528841531e-02  1.6213130485463315e-02  2.0188578092802313e-02  2.3663951152566691e-02  2.6070217504343938e-02  2.6961517591799267e-02  2.6151691011159280e-02  2.3778375202401992e-02  2.0264111915191115e-02  1.6189755056070145e-02  1.2133677007036582e-02  8.5392498506176792e-03  5.6508395553421572e-03  3.5221222941511691e-03  2.0717750640328082e-03  1.1524607709549725e-03  6.0722776789270852e-04  3.0258545085507703e-04  1.4000299562417381e-04  5.3367488383622944e-05  0.0000000000000000e+00  0.0000000000000000e+00  5.0359100013777659e-05  1.2191581290937279e-04  2.4329887671231462e-04  4.5354614780753730e-04  8.0614656221234134e-04  1.3692964354679801e-03  2.2194137860290001e-03  3.4250688243142313e-03  5.0207594133893727e-03  6.9748794691651518e-03  9.1626142956697677e-03  1.1358946176247449e-02  1.3264946697396838e-02  1.4569533948623462e-02  1.5031767325376460e-02  1.4554329173728760e-02  1.3217183117457974e-02  1.1255328969531672e-02  8.9892525612998101e-03  6.7371264776979294e-03  4.7425724986663084e-03  3.1397800269577130e-03  1.9580811400790039e-03  1.1524607709549721e-03  6.4143560044339931e-04  3.3811776073698450e-04  1.6850917742551380e-04  7.7921450872756178e-05  2.9636172178045268e-05  0.0000000000000000e+00  0.0000000000000000e+00  2.9389703059991578e-05  7.0558449233216013e-05  1.3949009643158565e-04  2.5755462324005224e-04  4.5354614780753714e-04  7.6358673139227424e-04  1.2273984500579757e-03  1.8795826477762767e-03  2.7357987309967898e-03  3.7763006572060966e-03  4.9324981046333892e-03  6.0843004745869842e-03  7.0747328999064682e-03  7.7425277821179866e-03  7.9646866231424685e-03  7.6938638139451669e-03  6.9748604129688573e-03  5.9323178546769719e-03  4.7343054587632577e-03  3.5468283679553395e-03  2.4965876089122676e-03  1.6531110713455725e-03  1.031275392546939