<?xml version="1.0"?>
<VTKFile type="UnstructuredGrid"  version="0.1"  >
<UnstructuredGrid>
<Piece  NumberOfPoints="961" NumberOfCells="1800">
<Points>
<DataArray  type="Float64"  NumberOfComponents="3"  format="ascii">-2 -2 0  -1.866666666666667 -2 0  -1.733333333333333 -2 0  -1.6 -2 0  -1.466666666666667 -2 0  -1.333333333333333 -2 0  -1.2 -2 0  -1.066666666666667 -2 0  -0.9333333333333333 -2 0  -0.8 -2 0  -0.6666666666666667 -2 0  -0.5333333333333334 -2 0  -0.3999999999999999 -2 0  -0.2666666666666666 -2 0  -0.1333333333333333 -2 0  0 -2 0  0.1333333333333333 -2 0  0.2666666666666666 -2 0  0.3999999999999999 -2 0  0.5333333333333332 -2 0  0.6666666666666665 -2 0  0.7999999999999998 -2 0  0.9333333333333331 -2 0  1.066666666666667 -2 0  1.2 -2 0  1.333333333333333 -2 0  1.466666666666667 -2 0  1.6 -2 0  1.733333333333333 -2 0  1.866666666666667 -2 0  2 -2 0  -2 -1.866666666666667 0  -1.866666666666667 -1.866666666666667 0  -1.733333333333333 -1.866666666666667 0  -1.6 -1.866666666666667 0  -1.466666666666667 -1.866666666666667 0  -1.333333333333333 -1.866666666666667 0  -1.2 -1.866666666666667 0  -1.066666666666667 -1.866666666666667 0  -0.9333333333333333 -1.866666666666667 0  -0.8 -1.866666666666667 0  -0.6666666666666667 -1.866666666666667 0  -0.5333333333333334 -1.866666666666667 0  -0.3999999999999999 -1.866666666666667 0  -0.2666666666666666 -1.866666666666667 0  -0.1333333333333333 -1.866666666666667 0  0 -1.866666666666667 0  0.1333333333333333 -1.866666666666667 0  0.2666666666666666 -1.866666666666667 0  0.3999999999999999 -1.866666666666667 0  0.5333333333333332 -1.866666666666667 0  0.6666666666666665 -1.866666666666667 0  0.7999999999999998 -1.866666666666667 0  0.9333333333333331 -1.866666666666667 0  1.066666666666667 -1.866666666666667 0  1.2 -1.866666666666667 0  1.333333333333333 -1.866666666666667 0  1.466666666666667 -1.866666666666667 0  1.6 -1.866666666666667 0  1.733333333333333 -1.866666666666667 0  1.866666666666667 -1.866666666666667 0  2 -1.866666666666667 0  -2 -1.733333333333333 0  -1.866666666666667 -1.733333333333333 0  -1.733333333333333 -1.733333333333333 0  -1.6 -1.733333333333333 0  -1.466666666666667 -1.733333333333333 0  -1.333333333333333 -1.733333333333333 0  -1.2 -1.733333333333333 0  -1.066666666666667 -1.733333333333333 0  -0.9333333333333333 -1.733333333333333 0  -0.8 -1.733333333333333 0  -0.6666666666666667 -1.733333333333333 0  -0.5333333333333334 -1.733333333333333 0  -0.3999999999999999 -1.733333333333333 0  -0.2666666666666666 -1.733333333333333 0  -0.1333333333333333 -1.733333333333333 0  0 -1.733333333333333 0  0.1333333333333333 -1.733333333333333 0  0.2666666666666666 -1.733333333333333 0  0.3999999999999999 -1.733333333333333 0  0.5333333333333332 -1.733333333333333 0  0.6666666666666665 -1.733333333333333 0  0.7999999999999998 -1.733333333333333 0  0.9333333333333331 -1.733333333333333 0  1.066666666666667 -1.733333333333333 0  1.2 -1.733333333333333 0  1.333333333333333 -1.733333333333333 0  1.466666666666667 -1.733333333333333 0  1.6 -1.733333333333333 0  1.733333333333333 -1.733333333333333 0  1.866666666666667 -1.733333333333333 0  2 -1.733333333333333 0  -2 -1.6 0  -1.866666666666667 -1.6 0  -1.733333333333333 -1.6 0  -1.6 -1.6 0  -1.466666666666667 -1.6 0  -1.333333333333333 -1.6 0  -1.2 -1.6 0  -1.066666666666667 -1.6 0  -0.9333333333333333 -1.6 0  -0.8 -1.6 0  -0.6666666666666667 -1.6 0  -0.5333333333333334 -1.6 0  -0.3999999999999999 -1.6 0  -0.2666666666666666 -1.6 0  -0.1333333333333333 -1.6 0  0 -1.6 0  0.1333333333333333 -1.6 0  0.2666666666666666 -1.6 0  0.3999999999999999 -1.6 0  0.5333333333333332 -1.6 0  0.6666666666666665 -1.6 0  0.7999999999999998 -1.6 0  0.9333333333333331 -1.6 0  1.066666666666667 -1.6 0  1.2 -1.6 0  1.333333333333333 -1.6 0  1.466666666666667 -1.6 0  1.6 -1.6 0  1.733333333333333 -1.6 0  1.866666666666667 -1.6 0  2 -1.6 0  -2 -1.466666666666667 0  -1.866666666666667 -1.466666666666667 0  -1.733333333333333 -1.466666666666667 0  -1.6 -1.466666666666667 0  -1.466666666666667 -1.466666666666667 0  -1.333333333333333 -1.466666666666667 0  -1.2 -1.466666666666667 0  -1.066666666666667 -1.466666666666667 0  -0.9333333333333333 -1.466666666666667 0  -0.8 -1.466666666666667 0  -0.6666666666666667 -1.466666666666667 0  -0.5333333333333334 -1.466666666666667 0  -0.3999999999999999 -1.466666666666667 0  -0.2666666666666666 -1.466666666666667 0  -0.1333333333333333 -1.466666666666667 0  0 -1.466666666666667 0  0.1333333333333333 -1.466666666666667 0  0.2666666666666666 -1.466666666666667 0  0.3999999999999999 -1.466666666666667 0  0.5333333333333332 -1.466666666666667 0  0.6666666666666665 -1.466666666666667 0  0.7999999999999998 -1.466666666666667 0  0.9333333333333331 -1.466666666666667 0  1.066666666666667 -1.466666666666667 0  1.2 -1.466666666666667 0  1.333333333333333 -1.466666666666667 0  1.466666666666667 -1.466666666666667 0  1.6 -1.466666666666667 0  1.733333333333333 -1.466666666666667 0  1.866666666666667 -1.466666666666667 0  2 -1.466666666666667 0  -2 -1.333333333333333 0  -1.866666666666667 -1.333333333333333 0  -1.733333333333333 -1.333333333333333 0  -1.6 -1.333333333333333 0  -1.466666666666667 -1.333333333333333 0  -1.333333333333333 -1.333333333333333 0  -1.2 -1.333333333333333 0  -1.066666666666667 -1.333333333333333 0  -0.9333333333333333 -1.333333333333333 0  -0.8 -1.333333333333333 0  -0.6666666666666667 -1.333333333333333 0  -0.5333333333333334 -1.333333333333333 0  -0.3999999999999999 -1.333333333333333 0  -0.2666666666666666 -1.333333333333333 0  -0.1333333333333333 -1.333333333333333 0  0 -1.333333333333333 0  0.1333333333333333 -1.333333333333333 0  0.2666666666666666 -1.333333333333333 0  0.3999999999999999 -1.333333333333333 0  0.5333333333333332 -1.333333333333333 0  0.6666666666666665 -1.333333333333333 0  0.7999999999999998 -1.333333333333333 0  0.9333333333333331 -1.333333333333333 0  1.066666666666667 -1.333333333333333 0  1.2 -1.333333333333333 0  1.333333333333333 -1.333333333333333 0  1.466666666666667 -1.333333333333333 0  1.6 -1.333333333333333 0  1.733333333333333 -1.333333333333333 0  1.866666666666667 -1.333333333333333 0  2 -1.333333333333333 0  -2 -1.2 0  -1.866666666666667 -1.2 0  -1.733333333333333 -1.2 0  -1.6 -1.2 0  -1.466666666666667 -1.2 0  -1.333333333333333 -1.2 0  -1.2 -1.2 0  -1.066666666666667 -1.2 0  -0.9333333333333333 -1.2 0  -0.8 -1.2 0  -0.6666666666666667 -1.2 0  -0.5333333333333334 -1.2 0  -0.3999999999999999 -1.2 0  -0.2666666666666666 -1.2 0  -0.1333333333333333 -1.2 0  0 -1.2 0  0.1333333333333333 -1.2 0  0.2666666666666666 -1.2 0  0.3999999999999999 -1.2 0  0.5333333333333332 -1.2 0  0.6666666666666665 -1.2 0  0.7999999999999998 -1.2 0  0.9333333333333331 -1.2 0  1.066666666666667 -1.2 0  1.2 -1.2 0  1.333333333333333 -1.2 0  1.466666666666667 -1.2 0  1.6 -1.2 0  1.733333333333333 -1.2 0  1.866666666666667 -1.2 0  2 -1.2 0  -2 -1.066666666666667 0  -1.866666666666667 -1.066666666666667 0  -1.733333333333333 -1.066666666666667 0  -1.6 -1.066666666666667 0  -1.466666666666667 -1.066666666666667 0  -1.333333333333333 -1.066666666666667 0  -1.2 -1.066666666666667 0  -1.066666666666667 -1.066666666666667 0  -0.9333333333333333 -1.066666666666667 0  -0.8 -1.066666666666667 0  -0.6666666666666667 -1.066666666666667 0  -0.5333333333333334 -1.066666666666667 0  -0.3999999999999999 -1.066666666666667 0  -0.2666666666666666 -1.066666666666667 0  -0.1333333333333333 -1.066666666666667 0  0 -1.066666666666667 0  0.1333333333333333 -1.066666666666667 0  0.2666666666666666 -1.066666666666667 0  0.3999999999999999 -1.066666666666667 0  0.5333333333333332 -1.066666666666667 0  0.6666666666666665 -1.066666666666667 0  0.7999999999999998 -1.066666666666667 0  0.9333333333333331 -1.066666666666667 0  1.066666666666667 -1.066666666666667 0  1.2 -1.066666666666667 0  1.333333333333333 -1.066666666666667 0  1.466666666666667 -1.066666666666667 0  1.6 -1.066666666666667 0  1.733333333333333 -1.066666666666667 0  1.866666666666667 -1.066666666666667 0  2 -1.066666666666667 0  -2 -0.9333333333333333 0  -1.866666666666667 -0.9333333333333333 0  -1.733333333333333 -0.9333333333333333 0  -1.6 -0.9333333333333333 0  -1.466666666666667 -0.9333333333333333 0  -1.333333333333333 -0.9333333333333333 0  -1.2 -0.9333333333333333 0  -1.066666666666667 -0.9333333333333333 0  -0.9333333333333333 -0.9333333333333333 0  -0.8 -0.9333333333333333 0  -0.6666666666666667 -0.9333333333333333 0  -0.5333333333333334 -0.9333333333333333 0  -0.3999999999999999 -0.9333333333333333 0  -0.2666666666666666 -0.9333333333333333 0  -0.1333333333333333 -0.9333333333333333 0  0 -0.9333333333333333 0  0.1333333333333333 -0.9333333333333333 0  0.2666666666666666 -0.9333333333333333 0  0.3999999999999999 -0.9333333333333333 0  0.5333333333333332 -0.9333333333333333 0  0.6666666666666665 -0.9333333333333333 0  0.7999999999999998 -0.9333333333333333 0  0.9333333333333331 -0.9333333333333333 0  1.066666666666667 -0.9333333333333333 0  1.2 -0.9333333333333333 0  1.333333333333333 -0.9333333333333333 0  1.466666666666667 -0.9333333333333333 0  1.6 -0.9333333333333333 0  1.733333333333333 -0.9333333333333333 0  1.866666666666667 -0.9333333333333333 0  2 -0.9333333333333333 0  -2 -0.8 0  -1.866666666666667 -0.8 0  -1.733333333333333 -0.8 0  -1.6 -0.8 0  -1.466666666666667 -0.8 0  -1.333333333333333 -0.8 0  -1.2 -0.8 0  -1.066666666666667 -0.8 0  -0.9333333333333333 -0.8 0  -0.8 -0.8 0  -0.6666666666666667 -0.8 0  -0.5333333333333334 -0.8 0  -0.3999999999999999 -0.8 0  -0.2666666666666666 -0.8 0  -0.1333333333333333 -0.8 0  0 -0.8 0  0.1333333333333333 -0.8 0  0.2666666666666666 -0.8 0  0.3999999999999999 -0.8 0  0.5333333333333332 -0.8 0  0.6666666666666665 -0.8 0  0.7999999999999998 -0.8 0  0.9333333333333331 -0.8 0  1.066666666666667 -0.8 0  1.2 -0.8 0  1.333333333333333 -0.8 0  1.466666666666667 -0.8 0  1.6 -0.8 0  1.733333333333333 -0.8 0  1.866666666666667 -0.8 0  2 -0.8 0  -2 -0.6666666666666667 0  -1.866666666666667 -0.
[...]
<PointData  Scalars="f_468"> 
<DataArray  type="Float64"  Name="f_468"  format="ascii">0.0000000000000000e+00  0.0000000000000000e+00  0.0000000000000000e+00  0.0000000000000000e+00  0.0000000000000000e+00  0.0000000000000000e+00  0.0000000000000000e+00  0.0000000000000000e+00  0.0000000000000000e+00  0.0000000000000000e+00  0.0000000000000000e+00  0.0000000000000000e+00  0.0000000000000000e+00  0.0000000000000000e+00  0.0000000000000000e+00  0.0000000000000000e+00  0.0000000000000000e+00  0.0000000000000000e+00  0.0000000000000000e+00  0.0000000000000000e+00  0.0000000000000000e+00  0.0000000000000000e+00  0.0000000000000000e+00  0.0000000000000000e+00  0.0000000000000000e+00  0.0000000000000000e+00  0.0000000000000000e+00  0.0000000000000000e+00  0.0000000000000000e+00  0.0000000000000000e+00  0.0000000000000000e+00  0.0000000000000000e+00  4.3378583774644634e-06  1.0959249741300781e-05  2.2256463723835954e-05  4.1637523676739533e-05  7.3665832327628783e-05  1.2386375659004641e-04  1.9794591750005888e-04  3.0035944788189850e-04  4.3226753180087961e-04  5.8948287024970694e-04  7.6117983998907944e-04  9.3025527984575134e-04  1.0758012747393297e-03  1.1773579307784987e-03  1.2197638258337601e-03  1.1969770982163067e-03  1.1135039119401966e-03  9.8296607199891079e-04  8.2442868199218006e-04  6.5785897998309347e-04  5.0018789479127778e-04  3.6295615621520440e-04  2.5178054366485853e-04  1.6724544827243033e-04  1.0652472113047232e-04  6.5071262797125547e-05  3.7940365642955020e-05  2.0575390424707574e-05  9.0713682875045834e-06  0.0000000000000000e+00  0.0000000000000000e+00  1.0959249741300781e-05  2.7441325007571498e-05  5.5483449483738780e-05  1.0351557103809313e-04  1.8276219074190632e-04  3.0675861945787369e-04  4.8944688993093780e-04  7.4156622075122972e-04  1.0656872243026371e-03  1.4511511010484523e-03  1.8709651876226206e-03  2.2827966222486113e-03  2.6351847277465566e-03  2.8781114404551546e-03  2.9749643786751326e-03  2.9118478701160213e-03  2.7008913123303321e-03  2.3764625863911949e-03  1.9859088670210355e-03  1.5782828973673723e-03  1.1947076595499105e-03  8.6276235844580699e-04  5.9539331945939508e-04  3.9329915418595817e-04  2.4903127350409576e-04  1.5117276277265448e-04  8.7553930535235624e-05  4.7124957040156263e-05  2.0575390424707574e-05  0.0000000000000000e+00  0.0000000000000000e+00  2.2256463723835950e-05  5.5483449483738746e-05  1.1194705727535852e-04  2.0863262595138097e-04  3.6809770462736189e-04  6.1750087757757809e-04  9.8474703285965945e-04  1.4911843142920121e-03  2.1415712263629610e-03  2.9138841440838198e-03  3.7531386336508783e-03  4.5735695205975282e-03  5.2714113294336593e-03  5.7464585674012235e-03  5.9262920628676335e-03  5.7848992261671280e-03  5.3489168015013232e-03  4.6894187418841937e-03  3.9027405658268576e-03  3.0875172241985570e-03  2.3253820201171171e-03  1.6700564195828906e-03  1.1456671901097981e-03  7.5198706192126474e-04  4.7294109102290270e-04  2.8506676697199107e-04  1.6389130846067044e-04  8.7553930535235624e-05  3.7940365642955027e-05  0.0000000000000000e+00  0.0000000000000000e+00  4.1637523676739540e-05  1.0351557103809311e-04  2.0863262595138097e-04  3.8869470462260969e-04  6.8576874786177122e-04  1.1504889609363492e-03  1.8348383697597060e-03  2.7784437668121314e-03  3.9897343634247261e-03  5.4268145791748733e-03  6.9859424728476900e-03  8.5058322076201637e-03  9.7919933847637700e-03  1.0657579075629822e-02  1.0969048321769760e-02  1.0680898079850102e-02  9.8466942211593647e-03  8.6026921328495876e-03  7.1309779562358849e-03  5.6159718371683008e-03  4.2084322893722464e-03  3.0057143521563983e-03  2.0495308684635926e-03  1.3365559450862626e-03  8.3480315082796683e-04  4.9954444900538191e-04  2.8506676697199112e-04  1.5117276277265448e-04  6.5071262797125560e-05  0.0000000000000000e+00  0.0000000000000000e+00  7.3665832327628810e-05  1.8276219074190640e-04  3.6809770462736195e-04  6.8576874786177122e-04  1.2101966736620361e-03  2.0310162121355314e-03  3.2402963125127910e-03  4.9081744908678502e-03  7.0492779384897534e-03  9.5885830007159181e-03  1.2340861853075574e-02  1.5018502046376609e-02  1.7275294881903602e-02  1.8779809339756461e-02  1.9297193032558852e-02  1.8750944617252220e-02  1.7241698945592222e-02  1.5016618382763374e-02  1.2402308097713454e-02  9.7265499746666314e-03  7.2543843195583511e-03  5.1540027734934719e-03  3.4941908939149341e-03  2.2644622487909623e-03  1.4049370142312316e-03  8.3480315082796693e-04  4.7294109102290275e-04  2.4903127350409576e-04  1.0652472113047237e-04  0.0000000000000000e+00  0.0000000000000000e+00  1.2386375659004644e-04  3.0675861945787363e-04  6.1750087757757809e-04  1.1504889609363488e-03  2.0310162121355310e-03  3.4101834204758601e-03  5.4434422950689091e-03  8.2494405462225726e-03  1.1853084412768253e-02  1.6127442641628898e-02  2.0758599371955743e-02  2.5258808853918454e-02  2.9041114682768990e-02  3.1544624398433842e-02  3.2374147996171790e-02  3.1405260421291631e-02  2.8815339742641152e-02  2.5029805059778393e-02  2.0606212072101997e-02  1.6100108748511168e-02  1.1956609693929556e-02  8.4538730962369774e-03  5.7007763167149150e-03  3.6729272596624312e-03  2.2644622487909623e-03  1.3365559450862628e-03  7.5198706192126507e-04  3.9329915418595828e-04  1.6724544827243044e-04  0.0000000000000000e+00  0.0000000000000000e+00  1.9794591750005880e-04  4.8944688993093758e-04  9.8474703285965945e-04  1.8348383697597062e-03  3.2402963125127910e-03  5.4434422950689117e-03  8.6941976593684876e-03  1.3184103260808971e-02  1.8954567662626348e-02  2.5802747414093576e-02  3.3224045271146842e-02  4.0432594968976290e-02  4.6481598914645587e-02  5.0466403328033052e-02  5.1751370042047953e-02  5.0140551773661078e-02  4.5927480052323985e-02  3.9806412730188839e-02  3.2682421090344971e-02  2.5452604719543047e-02  1.8830539786129412e-02  1.3256430771872049e-02  8.8959183000318406e-03  5.7007763167149159e-03  3.4941908939149376e-03  2.0495308684635939e-03  1.1456671901097987e-03  5.9539331945939551e-04  2.5178054366485863e-04  0.0000000000000000e+00  0.0000000000000000e+00  3.0035944788189844e-04  7.4156622075122972e-04  1.4911843142920128e-03  2.7784437668121327e-03  4.9081744908678528e-03  8.2494405462225761e-03  1.3184103260808976e-02  2.0006575808128719e-02  2.8783566024672136e-02  3.9209212533243505e-02  5.0515341160471273e-02  6.1500931960127812e-02  7.0715497392134063e-02  7.6771077053626277e-02  7.8692370752513424e-02  7.6181000202652310e-02  6.9692882062850056e-02  6.0300637911397253e-02  4.9398968600202653e-02  3.8365706782978279e-02  2.8291002211393836e-02  1.9840510252880895e-02  1.3256430771872045e-02  8.4538730962369756e-03  5.1540027734934702e-03  3.0057143521563987e-03  1.6700564195828911e-03  8.6276235844580699e-04  3.6295615621520440e-04  0.0000000000000000e+00  0.0000000000000000e+00  4.3226753180087955e-04  1.0656872243026375e-03  2.1415712263629619e-03  3.9897343634247304e-03  7.0492779384897552e-03  1.1853084412768255e-02  1.8954567662626345e-02  2.8783566024672136e-02  4.1443323503819761e-02  5.6499115395056781e-02  7.2845041866695187e-02  8.8743048516714051e-02  1.0208657995898554e-01  1.1085405155702217e-01  1.1362109458491866e-01  1.0994961733328858e-01  1.0050384827043977e-01  8.6850246730418884e-02  7.1025482549235200e-02  5.5038596347955909e-02  4.0473743804811155e-02  2.8291002211393860e-02  1.8830539786129415e-02  1.1956609693929565e-02  7.2543843195583589e-03  4.2084322893722482e-03  2.3253820201171180e-03  1.1947076595499109e-03  5.0018789479127788e-04  0.0000000000000000e+00  0.0000000000000000e+00  5.8948287024970705e-04  1.4511511010484529e-03  2.9138841440838224e-03  5.4268145791748776e-03  9.5885830007159268e-03  1.6127442641628905e-02  2.5802747414093576e-02  3.9209212533243491e-02  5.6499115395056781e-02  7.7090494186715097e-02  9.9479669658177269e-02  1.2128857803454283e-01  1.3962195955327122e-01  1.5168987749124838e-01  1.5551677092290422e-01  1.5048483630864776e-01  1.3750115570207350e-01  1.1872503957241573e-01  9.6970220273168650e-02  7.5012870754109978e-02  5.5038596347955882e-02  3.8365706782978300e-02  2.5452604719543043e-02  1.6100108748511175e-02  9.7265499746666314e-03  5.6159718371683025e-03  3.0875172241985596e-03  1.5782828973673730e-03  6.5785897998309390e-04  0.0000000000000000e+00  0.0000000000000000e+00  7.6117983998907955e-04  1.8709651876226217e-03  3.7531386336508809e-03  6.9859424728476935e-03  1.2340861853075575e-02  2.0758599371955747e-02  3.3224045271146842e-02  5.0515341160471280e-02  7.2845041866695187e-02  9.9479669658177297e-02  1.2849020705862141e-01  1.5680432675263081e-01  1.8066191130696455e-01  1.9642107367184936e-01  2.0148516680817741e-01  1.9502112628679905e-01  1.7818935685211326e-01  1.5379591751468183e-01  1.2551299748085720e-01  9.6970220273168678e-02  7.1025482549235172e-02  4.9398968600202695e-02  3.2682421090344929e-02  2.0606212072102000e-02  1.2402308097713458e-02  7.1309779562358901e-03  3.9027405658268563e-03  1.9859088670210359e-03  8.2442868199218038e-04  0.0000000000000000e+00  0.0000000000000000e+00  9.3025527984575134e-04  2.2827966222486121e-03  4.5735695205975308e-03  8.5058322076201689e-03  1.5018502046376623e-02  2.5258808853918464e-02  4.0432594968976283e-02  6.1500931960127792e-02  8.8743048516714024e-02  1.2128857803454277e-01  1.5680432675263078e-01  1.9154616017290346e-01  2.2090549785397087e-01  2.4039252727188187e-01  2.4677922279487746e-01  2.3899640886506879e-01  2.1843416395088391e-01  1.8852676603510238e-01  1.5379591751468175e-01  1.1872503957241567e-01  8.6850246730418842e-02  6.0300637911397302e-02  3.9806412730188825e-02  2.5029805059778386e-02  1.5016618382763370e-02  8.6026921328495876e-03  4.6894187418841911e-03  2.3764625863911945e-03  9.8296607199890992e-04  0.0000000000000000e+00  0.0000000000000000e+00  1.0758012747393297e-03  2.6351847277465592e-03  5.2714113294336619e-03  9.7919933847637787e-03  1.7275294881903627e-02  2.9041114682769046e-02  4.6481598914645629e-02  7.0715497392134063e-02  1.0208657995898551e-01  1.3962195955327114e-01  1.8066191130696463e-01  2.2090549785397098e-01  2.5502720954385616e-01  2.7780602532745546e-01  2.8545303085297047e-01  2.7666780669413543e-01  2.5300959895659553e-01  2.1843416395088394e-01  1.7818935685211332e-01  1.3750115570207355e-01  1.0050384827043982e-01  6.9692882062850126e-02  4.5927480052323992e-02  2.8815339742641166e-02  1.7241698945592236e-02  9.8466942211593734e-03  5.3489168015013241e-03  2.7008913123303317e-03  1.1135039119401968e-03  0.0000000000000000e+00  0.0000000000000000e+00  1.1773579307784989e-03  2.8781114404551589e-03  5.7464585674012305e-03  1.0657579075629838e-02  1.8779809339756488e-02  3.1544624398433876e-02  5.0466403328033073e-02  7.6771077053626319e-02  1.1085405155702223e-01  1.5168987749124849e-01  1.9642107367184952e-01  2.4039252727188215e-01  2.7780602532745569e-01  3.0294027272512447e-01  3.1160224732439218e-01  3.0229864232326892e-01  2.7666780669413549e-01  2.3899640886506884e-01  1.9502112628679905e-01  1.5048483630864778e-01  1.0994961733328859e-01  7.6181000202652366e-02  5.0140551773661057e-02  3.1405260421291624e-02  1.8750944617252220e-02  1.0680898079850103e-02  5.7848992261671306e-03  2.9118478701160213e-03  1.1969770982163065e-03  0.0000000000000000e+00  0.0000000000000000e+00  1.2197638258337610e-03  2.9749643786751347e-03  5.9262920628676361e-03  1.0969048321769773e-02  1.9297193032558873e-02  3.2374147996171838e-02  5.1751370042048023e-02  7.8692370752513494e-02  1.1362109458491874e-01  1.5551677092290445e-01  2.0148516680817774e-01  2.4677922279487785e-01  2.8545303085297086e-01  3.1160224732439229e-01  3.2085667626866049e-01  3.1160224732439201e-01  2.8545303085297047e-01  2.4677922279487755e-01  2.0148516680817752e-01  1.5551677092290428e-01  1.1362109458491866e-01  7.8692370752513480e-02  5.1751370042047919e-02  3.2374147996171776e-02  1.9297193032558852e-02  1.0969048321769759e-02  5.9262920628676309e-03  2.9749643786751317e-03  1.2197638258337597e-03  0.0000000000000000e+00  0.0000000000000000e+00  1.1969770982163078e-03  2.9118478701160243e-03  5.7848992261671358e-03  1.0680898079850114e-02  1.8750944617252237e-02  3.1405260421291666e-02  5.0140551773661099e-02  7.6181000202652394e-02  1.0994961733328876e-01  1.5048483630864798e-01  1.9502112628679930e-01  2.3899640886506926e-01  2.7666780669413593e-01  3.0229864232326931e-01  3.1160224732439235e-01  3.0294027272512447e-01  2.7780602532745557e-01  2.4039252727188190e-01  1.9642107367184916e-01  1.5168987749124832e-01  1.1085405155702213e-01  7.6771077053626291e-02  5.0466403328033010e-02  3.1544624398433828e-02  1.8779809339756450e-02  1.0657579075629820e-02  5.7464585674012209e-03  2.8781114404551542e-03  1.1773579307784979e-03  0.0000000000000000e+00  0.0000000000000000e+00  1.1135039119401979e-03  2.7008913123303347e-03  5.3489168015013301e-03  9.8466942211593821e-03  1.7241698945592247e-02  2.8815339742641197e-02  4.5927480052324048e-02  6.9692882062850139e-02  1.0050384827043987e-01  1.3750115570207372e-01  1.7818935685211351e-01  2.1843416395088447e-01  2.5300959895659608e-01  2.7666780669413593e-01  2.8545303085297075e-01  2.7780602532745563e-01  2.5502720954385621e-01  2.2090549785397090e-01  1.8066191130696446e-01  1.3962195955327117e-01  1.0208657995898554e-01  7.0715497392134105e-02  4.6481598914645567e-02  2.9041114682768994e-02  1.7275294881903602e-02  9.7919933847637666e-03  5.2714113294336550e-03  2.6351847277465553e-03  1.0758012747393293e-03  0.0000000000000000e+00  0.0000000000000000e+00  9.8296607199891252e-04  2.3764625863911984e-03  4.6894187418842007e-03  8.6026921328496014e-03  1.5016618382763393e-02  2.5029805059778424e-02  3.9806412730188881e-02  6.0300637911397344e-02  8.6850246730418981e-02  1.1872503957241588e-01  1.5379591751468200e-01  1.8852676603510285e-01  2.1843416395088447e-01  2.3899640886506926e-01  2.4677922279487785e-01  2.4039252727188215e-01  2.2090549785397101e-01  1.9154616017290355e-01  1.5680432675263073e-01  1.2128857803454279e-01  8.8743048516714010e-02  6.1500931960127819e-02  4.0432594968976256e-02  2.5258808853918440e-02  1.5018502046376602e-02  8.5058322076201585e-03  4.5735695205975264e-03  2.2827966222486108e-03  9.3025527984575080e-04  0.0000000000000000e+00  0.0000000000000000e+00  8.2442868199218168e-04  1.9859088670210389e-03  3.9027405658268641e-03  7.1309779562358953e-03  1.2402308097713465e-02  2.0606212072102024e-02  3.2682421090345005e-02  4.9398968600202757e-02  7.1025482549235269e-02  9.6970220273168831e-02  1.2551299748085740e-01  1.5379591751468205e-01  1.7818935685211368e-01  1.9502112628679938e-01  2.0148516680817780e-01  1.9642107367184966e-01  1.8066191130696466e-01  1.5680432675263078e-01  1.2849020705862135e-01  9.9479669658177214e-02  7.2845041866695159e-02  5.0515341160471239e-02  3.3224045271146814e-02  2.0758599371955722e-02  1.2340861853075560e-02  6.9859424728476831e-03  3.7531386336508792e-03  1.8709651876226200e-03  7.6117983998907890e-04  0.0000000000000000e+00  0.0000000000000000e+00  6.5785897998309499e-04  1.5782828973673758e-03  3.0875172241985639e-03  5.6159718371683104e-03  9.7265499746666453e-03  1.6100108748511203e-02  2.5452604719543089e-02  3.8365706782978348e-02  5.5038596347955979e-02  7.5012870754110075e-02  9.6970220273168803e-02  1.1872503957241599e-01  1.3750115570207386e-01  1.5048483630864803e-01  1.5551677092290445e-01  1.5168987749124857e-01  1.3962195955327139e-01  1.2128857803454289e-01  9.9479669658177283e-02  7.7090494186715153e-02  5.6499115395056781e-02  3.9209212533243477e-02  2.5802747414093566e-02  1.6127442641628895e-02  9.5885830007159199e-03  5.4268145791748724e-03  2.9138841440838211e-03  1.4511511010484527e-03  5.8948287024970672e-04  0.0000000000000000e+00  0.0000000000000000e+00  5.0018789479127908e-04  1.1947076595499129e-03  2.3253820201171223e-03  4.2084322893722569e-03  7.2543843195583780e-03  1.1956609693929596e-02  1.8830539786129457e-02  2.8291002211393895e-02  4.0473743804811245e-02  5.5038596347955972e-02  7.1025482549235269e-02  8.6850246730419065e-02  1.0050384827044001e-01  1.0994961733328880e-01  1.1362109458491888e-01  1.1085405155702234e-01  1.0208657995898568e-01  8.8743048516714121e-02  7.2845041866695270e-02  5.6499115395056865e-02  4.1443323503819796e-02  2.8783566024672136e-02  1.8954567662626334e-02  1.1853084412768255e-02  7.0492779384897534e-03  3.9897343634247287e-03  2.1415712263629619e-03  1.0656872243026382e-03  4.3226753180087988e-04  0.0000000000000000e+00  0.0000000000000000e+00  3.6295615621520538e-04  8.6276235844580894e-04  1.6700564195828941e-03  3.0057143521564056e-03  5.1540027734934806e-03  8.4538730962369964e-03  1.3256430771872078e-02  1.9840510252880937e-02  2.8291002211393915e-02  3.8365706782978355e-02  4.9398968600202757e-02  6.0300637911397427e-02  6.9692882062850278e-02  7.6181000202652491e-02  7.8692370752513591e-02  7.6771077053626416e-02  7.0715497392134216e-02  6.1500931960127923e-02  5.0515341160471350e-02  3.9209212533243561e-02  2.8783566024672167e-02  2.0006575808128740e-02  1.3184103260808966e-02  8.2494405462225726e-03  4.9081744908678528e-03  2.7784437668121336e-03  1.4911843142920141e-03  7.4156622075123081e-04  3.0035944788189887e-04  0.0000000000000000e+00  0.0000000000000000e+00  2.5178054366485896e-04  5.9539331945939638e-04  1.1456671901098003e-03  2.0495308684635974e-03  3.4941908939149407e-03  5.7007763167149202e-03  8.8959183000318458e-03  1.3256430771872052e-02  1.8830539786129429e-02  2.5452604719543068e-02  3.2682421090344985e-02  3.9806412730188888e-02  4.5927480052324048e-02  5.0140551773661092e-02  5.1751370042047974e-02  5.0466403328033031e-02  4.6481598914645601e-02  4.0432594968976304e-02  3.3224045271146842e-02  2.5802747414093583e-02  1.8954567662626348e-02  1.3184103260808974e-02  8.6941976593684737e-03  5.4434422950688996e-03  3.2402963125127862e-03  1.8348383697597045e-03  9.8474703285965836e-04  4.8944688993093715e-04  1.9794591750005872e-04  0.0000000000000000e+00  0.0000000000000000e+00  1.6724544827243065e-04  3.9329915418595887e-04  7.5198706192126648e-04  1.3365559450862654e-03  2.2644622487909662e-03  3.6729272596624351e-03  5.7007763167149185e-03  8.4538730962369808e-03  1.1956609693929579e-02  1.6100108748511189e-02  2.0606212072102021e-02  2.5029805059778424e-02  2.8815339742641208e-02  3.1405260421291666e-02  3.2374147996171811e-02  3.1544624398433856e-02  2.9041114682769022e-02  2.5258808853918468e-02  2.0758599371955743e-02  1.6127442641628905e-02  1.1853084412768269e-02  8.2494405462225796e-03  5.4434422950689065e-03  3.4101834204758527e-03  2.0310162121355284e-03  1.1504889609363471e-03  6.1750087757757744e-04  3.0675861945787331e-04  1.2386375659004630e-04  0.0000000000000000e+00  0.0000000000000000e+00  1.0652472113047253e-04  2.4903127350409614e-04  4.7294109102290362e-04  8.3480315082796867e-04  1.4049370142312344e-03  2.2644622487909649e-03  3.4941908939149407e-03  5.1540027734934737e-03  7.2543843195583668e-03  9.7265499746666487e-03  1.2402308097713482e-02  1.5016618382763405e-02  1.7241698945592264e-02  1.8750944617252241e-02  1.9297193032558856e-02  1.8779809339756471e-02  1.7275294881903623e-02  1.5018502046376630e-02  1.2340861853075587e-02  9.5885830007159303e-03  7.0492779384897586e-03  4.9081744908678563e-03  3.2402963125127892e-03  2.0310162121355288e-03  1.2101966736620354e-03  6.8576874786177024e-04  3.6809770462736151e-04  1.8276219074190621e-04  7.3665832327628783e-05  0.0000000000000000e+00  0.0000000000000000e+00  6.5071262797125655e-05  1.5117276277265470e-04  2.8506676697199156e-04  4.9954444900538288e-04  8.3480315082796889e-04  1.3365559450862648e-03  2.0495308684635957e-03  3.0057143521564004e-03  4.2084322893722517e-03  5.6159718371683104e-03  7.1309779562359014e-03  8.6026921328496066e-03  9.8466942211593925e-03  1.0680898079850119e-02  1.0969048321769769e-02  1.0657579075629834e-02  9.7919933847637787e-03  8.5058322076201689e-03  6.9859424728476944e-03  5.4268145791748785e-03  3.9897343634247330e-03  2.7784437668121353e-03  1.834838369759705