<?xml version="1.0"?>
<VTKFile type="UnstructuredGrid"  version="0.1"  >
<UnstructuredGrid>
<Piece  NumberOfPoints="961" NumberOfCells="1800">
<Points>
<DataArray  type="Float64"  NumberOfComponents="3"  format="ascii">-2 -2 0  -1.866666666666667 -2 0  -1.733333333333333 -2 0  -1.6 -2 0  -1.466666666666667 -2 0  -1.333333333333333 -2 0  -1.2 -2 0  -1.066666666666667 -2 0  -0.9333333333333333 -2 0  -0.8 -2 0  -0.6666666666666667 -2 0  -0.5333333333333334 -2 0  -0.3999999999999999 -2 0  -0.2666666666666666 -2 0  -0.1333333333333333 -2 0  0 -2 0  0.1333333333333333 -2 0  0.2666666666666666 -2 0  0.3999999999999999 -2 0  0.5333333333333332 -2 0  0.6666666666666665 -2 0  0.7999999999999998 -2 0  0.9333333333333331 -2 0  1.066666666666667 -2 0  1.2 -2 0  1.333333333333333 -2 0  1.466666666666667 -2 0  1.6 -2 0  1.733333333333333 -2 0  1.866666666666667 -2 0  2 -2 0  -2 -1.866666666666667 0  -1.866666666666667 -1.866666666666667 0  -1.733333333333333 -1.866666666666667 0  -1.6 -1.866666666666667 0  -1.466666666666667 -1.866666666666667 0  -1.333333333333333 -1.866666666666667 0  -1.2 -1.866666666666667 0  -1.066666666666667 -1.866666666666667 0  -0.9333333333333333 -1.866666666666667 0  -0.8 -1.866666666666667 0  -0.6666666666666667 -1.866666666666667 0  -0.5333333333333334 -1.866666666666667 0  -0.3999999999999999 -1.866666666666667 0  -0.2666666666666666 -1.866666666666667 0  -0.1333333333333333 -1.866666666666667 0  0 -1.866666666666667 0  0.1333333333333333 -1.866666666666667 0  0.2666666666666666 -1.866666666666667 0  0.3999999999999999 -1.866666666666667 0  0.5333333333333332 -1.866666666666667 0  0.6666666666666665 -1.866666666666667 0  0.7999999999999998 -1.866666666666667 0  0.9333333333333331 -1.866666666666667 0  1.066666666666667 -1.866666666666667 0  1.2 -1.866666666666667 0  1.333333333333333 -1.866666666666667 0  1.466666666666667 -1.866666666666667 0  1.6 -1.866666666666667 0  1.733333333333333 -1.866666666666667 0  1.866666666666667 -1.866666666666667 0  2 -1.866666666666667 0  -2 -1.733333333333333 0  -1.866666666666667 -1.733333333333333 0  -1.733333333333333 -1.733333333333333 0  -1.6 -1.733333333333333 0  -1.466666666666667 -1.733333333333333 0  -1.333333333333333 -1.733333333333333 0  -1.2 -1.733333333333333 0  -1.066666666666667 -1.733333333333333 0  -0.9333333333333333 -1.733333333333333 0  -0.8 -1.733333333333333 0  -0.6666666666666667 -1.733333333333333 0  -0.5333333333333334 -1.733333333333333 0  -0.3999999999999999 -1.733333333333333 0  -0.2666666666666666 -1.733333333333333 0  -0.1333333333333333 -1.733333333333333 0  0 -1.733333333333333 0  0.1333333333333333 -1.733333333333333 0  0.2666666666666666 -1.733333333333333 0  0.3999999999999999 -1.733333333333333 0  0.5333333333333332 -1.733333333333333 0  0.6666666666666665 -1.733333333333333 0  0.7999999999999998 -1.733333333333333 0  0.9333333333333331 -1.733333333333333 0  1.066666666666667 -1.733333333333333 0  1.2 -1.733333333333333 0  1.333333333333333 -1.733333333333333 0  1.466666666666667 -1.733333333333333 0  1.6 -1.733333333333333 0  1.733333333333333 -1.733333333333333 0  1.866666666666667 -1.733333333333333 0  2 -1.733333333333333 0  -2 -1.6 0  -1.866666666666667 -1.6 0  -1.733333333333333 -1.6 0  -1.6 -1.6 0  -1.466666666666667 -1.6 0  -1.333333333333333 -1.6 0  -1.2 -1.6 0  -1.066666666666667 -1.6 0  -0.9333333333333333 -1.6 0  -0.8 -1.6 0  -0.6666666666666667 -1.6 0  -0.5333333333333334 -1.6 0  -0.3999999999999999 -1.6 0  -0.2666666666666666 -1.6 0  -0.1333333333333333 -1.6 0  0 -1.6 0  0.1333333333333333 -1.6 0  0.2666666666666666 -1.6 0  0.3999999999999999 -1.6 0  0.5333333333333332 -1.6 0  0.6666666666666665 -1.6 0  0.7999999999999998 -1.6 0  0.9333333333333331 -1.6 0  1.066666666666667 -1.6 0  1.2 -1.6 0  1.333333333333333 -1.6 0  1.466666666666667 -1.6 0  1.6 -1.6 0  1.733333333333333 -1.6 0  1.866666666666667 -1.6 0  2 -1.6 0  -2 -1.466666666666667 0  -1.866666666666667 -1.466666666666667 0  -1.733333333333333 -1.466666666666667 0  -1.6 -1.466666666666667 0  -1.466666666666667 -1.466666666666667 0  -1.333333333333333 -1.466666666666667 0  -1.2 -1.466666666666667 0  -1.066666666666667 -1.466666666666667 0  -0.9333333333333333 -1.466666666666667 0  -0.8 -1.466666666666667 0  -0.6666666666666667 -1.466666666666667 0  -0.5333333333333334 -1.466666666666667 0  -0.3999999999999999 -1.466666666666667 0  -0.2666666666666666 -1.466666666666667 0  -0.1333333333333333 -1.466666666666667 0  0 -1.466666666666667 0  0.1333333333333333 -1.466666666666667 0  0.2666666666666666 -1.466666666666667 0  0.3999999999999999 -1.466666666666667 0  0.5333333333333332 -1.466666666666667 0  0.6666666666666665 -1.466666666666667 0  0.7999999999999998 -1.466666666666667 0  0.9333333333333331 -1.466666666666667 0  1.066666666666667 -1.466666666666667 0  1.2 -1.466666666666667 0  1.333333333333333 -1.466666666666667 0  1.466666666666667 -1.466666666666667 0  1.6 -1.466666666666667 0  1.733333333333333 -1.466666666666667 0  1.866666666666667 -1.466666666666667 0  2 -1.466666666666667 0  -2 -1.333333333333333 0  -1.866666666666667 -1.333333333333333 0  -1.733333333333333 -1.333333333333333 0  -1.6 -1.333333333333333 0  -1.466666666666667 -1.333333333333333 0  -1.333333333333333 -1.333333333333333 0  -1.2 -1.333333333333333 0  -1.066666666666667 -1.333333333333333 0  -0.9333333333333333 -1.333333333333333 0  -0.8 -1.333333333333333 0  -0.6666666666666667 -1.333333333333333 0  -0.5333333333333334 -1.333333333333333 0  -0.3999999999999999 -1.333333333333333 0  -0.2666666666666666 -1.333333333333333 0  -0.1333333333333333 -1.333333333333333 0  0 -1.333333333333333 0  0.1333333333333333 -1.333333333333333 0  0.2666666666666666 -1.333333333333333 0  0.3999999999999999 -1.333333333333333 0  0.5333333333333332 -1.333333333333333 0  0.6666666666666665 -1.333333333333333 0  0.7999999999999998 -1.333333333333333 0  0.9333333333333331 -1.333333333333333 0  1.066666666666667 -1.333333333333333 0  1.2 -1.333333333333333 0  1.333333333333333 -1.333333333333333 0  1.466666666666667 -1.333333333333333 0  1.6 -1.333333333333333 0  1.733333333333333 -1.333333333333333 0  1.866666666666667 -1.333333333333333 0  2 -1.333333333333333 0  -2 -1.2 0  -1.866666666666667 -1.2 0  -1.733333333333333 -1.2 0  -1.6 -1.2 0  -1.466666666666667 -1.2 0  -1.333333333333333 -1.2 0  -1.2 -1.2 0  -1.066666666666667 -1.2 0  -0.9333333333333333 -1.2 0  -0.8 -1.2 0  -0.6666666666666667 -1.2 0  -0.5333333333333334 -1.2 0  -0.3999999999999999 -1.2 0  -0.2666666666666666 -1.2 0  -0.1333333333333333 -1.2 0  0 -1.2 0  0.1333333333333333 -1.2 0  0.2666666666666666 -1.2 0  0.3999999999999999 -1.2 0  0.5333333333333332 -1.2 0  0.6666666666666665 -1.2 0  0.7999999999999998 -1.2 0  0.9333333333333331 -1.2 0  1.066666666666667 -1.2 0  1.2 -1.2 0  1.333333333333333 -1.2 0  1.466666666666667 -1.2 0  1.6 -1.2 0  1.733333333333333 -1.2 0  1.866666666666667 -1.2 0  2 -1.2 0  -2 -1.066666666666667 0  -1.866666666666667 -1.066666666666667 0  -1.733333333333333 -1.066666666666667 0  -1.6 -1.066666666666667 0  -1.466666666666667 -1.066666666666667 0  -1.333333333333333 -1.066666666666667 0  -1.2 -1.066666666666667 0  -1.066666666666667 -1.066666666666667 0  -0.9333333333333333 -1.066666666666667 0  -0.8 -1.066666666666667 0  -0.6666666666666667 -1.066666666666667 0  -0.5333333333333334 -1.066666666666667 0  -0.3999999999999999 -1.066666666666667 0  -0.2666666666666666 -1.066666666666667 0  -0.1333333333333333 -1.066666666666667 0  0 -1.066666666666667 0  0.1333333333333333 -1.066666666666667 0  0.2666666666666666 -1.066666666666667 0  0.3999999999999999 -1.066666666666667 0  0.5333333333333332 -1.066666666666667 0  0.6666666666666665 -1.066666666666667 0  0.7999999999999998 -1.066666666666667 0  0.9333333333333331 -1.066666666666667 0  1.066666666666667 -1.066666666666667 0  1.2 -1.066666666666667 0  1.333333333333333 -1.066666666666667 0  1.466666666666667 -1.066666666666667 0  1.6 -1.066666666666667 0  1.733333333333333 -1.066666666666667 0  1.866666666666667 -1.066666666666667 0  2 -1.066666666666667 0  -2 -0.9333333333333333 0  -1.866666666666667 -0.9333333333333333 0  -1.733333333333333 -0.9333333333333333 0  -1.6 -0.9333333333333333 0  -1.466666666666667 -0.9333333333333333 0  -1.333333333333333 -0.9333333333333333 0  -1.2 -0.9333333333333333 0  -1.066666666666667 -0.9333333333333333 0  -0.9333333333333333 -0.9333333333333333 0  -0.8 -0.9333333333333333 0  -0.6666666666666667 -0.9333333333333333 0  -0.5333333333333334 -0.9333333333333333 0  -0.3999999999999999 -0.9333333333333333 0  -0.2666666666666666 -0.9333333333333333 0  -0.1333333333333333 -0.9333333333333333 0  0 -0.9333333333333333 0  0.1333333333333333 -0.9333333333333333 0  0.2666666666666666 -0.9333333333333333 0  0.3999999999999999 -0.9333333333333333 0  0.5333333333333332 -0.9333333333333333 0  0.6666666666666665 -0.9333333333333333 0  0.7999999999999998 -0.9333333333333333 0  0.9333333333333331 -0.9333333333333333 0  1.066666666666667 -0.9333333333333333 0  1.2 -0.9333333333333333 0  1.333333333333333 -0.9333333333333333 0  1.466666666666667 -0.9333333333333333 0  1.6 -0.9333333333333333 0  1.733333333333333 -0.9333333333333333 0  1.866666666666667 -0.9333333333333333 0  2 -0.9333333333333333 0  -2 -0.8 0  -1.866666666666667 -0.8 0  -1.733333333333333 -0.8 0  -1.6 -0.8 0  -1.466666666666667 -0.8 0  -1.333333333333333 -0.8 0  -1.2 -0.8 0  -1.066666666666667 -0.8 0  -0.9333333333333333 -0.8 0  -0.8 -0.8 0  -0.6666666666666667 -0.8 0  -0.5333333333333334 -0.8 0  -0.3999999999999999 -0.8 0  -0.2666666666666666 -0.8 0  -0.1333333333333333 -0.8 0  0 -0.8 0  0.1333333333333333 -0.8 0  0.2666666666666666 -0.8 0  0.3999999999999999 -0.8 0  0.5333333333333332 -0.8 0  0.6666666666666665 -0.8 0  0.7999999999999998 -0.8 0  0.9333333333333331 -0.8 0  1.066666666666667 -0.8 0  1.2 -0.8 0  1.333333333333333 -0.8 0  1.466666666666667 -0.8 0  1.6 -0.8 0  1.733333333333333 -0.8 0  1.866666666666667 -0.8 0  2 -0.8 0  -2 -0.6666666666666667 0  -1.866666666666667 -0.
[...]
<PointData  Scalars="f_3403"> 
<DataArray  type="Float64"  Name="f_3403"  format="ascii">0.0000000000000000e+00  0.0000000000000000e+00  0.0000000000000000e+00  0.0000000000000000e+00  0.0000000000000000e+00  0.0000000000000000e+00  0.0000000000000000e+00  0.0000000000000000e+00  0.0000000000000000e+00  0.0000000000000000e+00  0.0000000000000000e+00  0.0000000000000000e+00  0.0000000000000000e+00  0.0000000000000000e+00  0.0000000000000000e+00  0.0000000000000000e+00  0.0000000000000000e+00  0.0000000000000000e+00  0.0000000000000000e+00  0.0000000000000000e+00  0.0000000000000000e+00  0.0000000000000000e+00  0.0000000000000000e+00  0.0000000000000000e+00  0.0000000000000000e+00  0.0000000000000000e+00  0.0000000000000000e+00  0.0000000000000000e+00  0.0000000000000000e+00  0.0000000000000000e+00  0.0000000000000000e+00  0.0000000000000000e+00  1.8956063190908481e-04  3.7671041213500157e-04  5.5954311688664719e-04  7.3612635436191680e-04  9.0456530894080108e-04  1.0630387044379605e-03  1.2098250466529039e-03  1.3433245949418481e-03  1.4620787882423849e-03  1.5647876404313497e-03  1.6503251875607523e-03  1.7177529053749399e-03  1.7663309566980860e-03  1.7955271178583044e-03  1.8050232490849825e-03  1.7947192056700107e-03  1.7647341288853579e-03  1.7154051041068387e-03  1.6472832249511600e-03  1.5611271537180670e-03  1.4578943180944854e-03  1.3387299314184932e-03  1.2049540710445145e-03  1.0580471044387828e-03  8.9963383697944826e-04  7.3146692623710964e-04  5.5541052766207874e-04  3.7342631160272561e-04  1.8756763217077078e-04  0.0000000000000000e+00  0.0000000000000000e+00  3.7671041213500146e-04  7.4884005770277135e-04  1.1124617490023275e-03  1.4636887341542308e-03  1.7987364072373378e-03  2.1139754633273358e-03  2.4059783846943099e-03  2.6715611712473364e-03  2.9078212226219965e-03  3.1121716181728696e-03  3.2823716962191280e-03  3.4165536726668425e-03  3.5132449799833709e-03  3.5713860087608963e-03  3.5903429744714777e-03  3.5699156992640996e-03  3.5103401843014658e-03  3.4122859451748131e-03  3.2768481850938991e-03  3.1055349823124437e-03  2.9002497653463251e-03  2.6632694398432246e-03  2.3972186159982069e-03  2.1050404731734825e-03  1.7899649089071542e-03  1.4554747960034108e-03  1.1052714994421483e-03  7.4324142343290859e-04  3.7342631160272550e-04  0.0000000000000000e+00  0.0000000000000000e+00  5.5954311688664730e-04  1.1124617490023275e-03  1.6528316851974923e-03  2.1748339946697313e-03  2.6728231227187275e-03  3.1413942074639454e-03  3.5754468881543638e-03  3.9702449462179126e-03  4.3214715014055069e-03  4.6252794249297090e-03  4.8783365184502173e-03  5.0778649371325353e-03  5.2216743195820361e-03  5.3081881213743907e-03  5.3364627235536512e-03  5.3061989942993822e-03  5.2177461124652052e-03  5.0720976072033174e-03  4.8708797197464966e-03  4.6163323434272379e-03  4.3112829391789270e-03  3.9591139511899690e-03  3.5637243593011135e-03  3.1294861035643176e-03  2.6611962092164270e-03  2.1640255362781668e-03  1.6434651724090705e-03  1.1052714994421483e-03  5.5541052766207852e-04  0.0000000000000000e+00  0.0000000000000000e+00  7.3612635436191745e-04  1.4636887341542316e-03  2.1748339946697313e-03  2.8618686481606940e-03  3.5173413013661241e-03  4.1341254608327745e-03  4.7054999429825247e-03  5.2252253554263065e-03  5.6876156359229133e-03  6.0876037955292063e-03  6.4208010446006360e-03  6.6835484928950513e-03  6.8729606513252342e-03  6.9869600370409410e-03  7.0243022970423903e-03  6.9845914140017678e-03  6.8682847336525446e-03  6.6766877462688928e-03  6.4119387546675661e-03  6.0769837570439425e-03  5.6755420549343735e-03  5.2120632565939989e-03  4.6916764783659845e-03  4.1201326476626981e-03  3.5037408776500182e-03  2.8492999060581283e-03  2.1640255362781664e-03  1.4554747960034099e-03  7.3146692623710877e-04  0.0000000000000000e+00  0.0000000000000000e+00  9.0456530894080227e-04  1.7987364072373400e-03  2.6728231227187292e-03  3.5173413013661232e-03  4.3231125966464246e-03  5.0813638265986422e-03  5.7838237891968906e-03  6.4228158693770306e-03  6.9913450750795931e-03  7.4831782930853434e-03  7.8929166303542912e-03  8.2160587637731021e-03  8.4490542966506547e-03  8.5893462311415793e-03  8.6354018171194043e-03  8.5867312272885337e-03  8.4438937279118654e-03  8.2084912535722917e-03  7.8831495401772492e-03  7.4714872097105612e-03  6.9780734204294252e-03  6.4083748862804020e-03  5.7686932203434155e-03  5.0660936619252297e-03  4.3083262982295820e-03  3.5037408776500208e-03  2.6611962092164248e-03  1.7899649089071518e-03  8.9963383697944793e-04  0.0000000000000000e+00  0.0000000000000000e+00  1.0630387044379623e-03  2.1139754633273380e-03  3.1413942074639467e-03  4.1341254608327762e-03  5.0813638265986448e-03  5.9727839748453214e-03  6.7986534518488162e-03  7.5499406839389877e-03  8.2184166514008405e-03  8.7967487886336185e-03  9.2785857303495818e-03  9.6586315940327301e-03  9.9327085875328541e-03  1.0097806870305769e-02  1.0152120781600200e-02  1.0095070775892419e-02  9.9273106666533731e-03  9.6507200617693308e-03  9.2683821629284333e-03  8.7845473814631946e-03  8.2045834794520853e-03  7.5349131639434264e-03  6.7829402329674087e-03  5.9569654860020874e-03  5.0660936619252315e-03  4.1201326476626981e-03  3.1294861035643167e-03  2.1050404731734812e-03  1.0580471044387820e-03  0.0000000000000000e+00  0.0000000000000000e+00  1.2098250466529054e-03  2.4059783846943129e-03  3.5754468881543664e-03  4.7054999429825281e-03  5.7838237891968940e-03  6.7986534518488153e-03  7.7389007524171468e-03  8.5942767956290588e-03  9.3554073080086928e-03  1.0013939217743484e-02  1.0562636901838255e-02  1.0995466594228174e-02  1.1307667558900523e-02  1.1495808792857583e-02  1.1557830236664946e-02  1.1493067730898173e-02  1.1302261255125104e-02  1.0987546308089409e-02  1.0552428616792838e-02  1.0001742680485872e-02  9.3415949459990412e-03  8.5792926581510984e-03  7.7232596209152000e-03  6.7829402329674026e-03  5.7686932203434111e-03  4.6916764783659819e-03  3.5637243593011087e-03  2.3972186159982043e-03  1.2049540710445126e-03  0.0000000000000000e+00  0.0000000000000000e+00  1.3433245949418502e-03  2.6715611712473395e-03  3.9702449462179169e-03  5.2252253554263091e-03  6.4228158693770323e-03  7.5499406839389851e-03  8.5942767956290553e-03  9.5443898303828097e-03  1.0389861914993411e-02  1.1121409847962551e-02  1.1730991837759223e-02  1.2211901136517756e-02  1.2558845013115029e-02  1.2768007685826454e-02  1.2837096070851981e-02  1.2765367492697754e-02  1.2553638834122615e-02  1.2204276961268006e-02  1.1721170625059127e-02  1.1109684393307956e-02  1.0376595490166212e-02  9.5300146939799029e-03  8.5792926581510984e-03  7.5349131639434177e-03  6.4083748862803951e-03  5.2120632565939946e-03  3.9591139511899638e-03  2.6632694398432211e-03  1.3387299314184895e-03  0.0000000000000000e+00  0.0000000000000000e+00  1.4620787882423873e-03  2.9078212226219991e-03  4.3214715014055129e-03  5.6876156359229133e-03  6.9913450750796000e-03  8.2184166514008491e-03  9.3554073080086998e-03  1.0389861914993415e-02  1.1310432376782243e-02  1.2107006172701289e-02  1.2770822466102073e-02  1.3294573970245508e-02  1.3672492878006181e-02  1.3900419350448069e-02  1.3975851314427815e-02  1.3897974633888871e-02  1.3667673080290547e-02  1.3287517917150559e-02  1.2761737311581511e-02  1.2096166170533718e-02  1.1298177350638415e-02  1.0376595490166222e-02  9.3415949459990429e-03  8.2045834794520819e-03  6.9780734204294235e-03  5.6755420549343700e-03  4.3112829391789235e-03  2.9002497653463225e-03  1.4578943180944841e-03  0.0000000000000000e+00  0.0000000000000000e+00  1.5647876404313518e-03  3.1121716181728748e-03  4.6252794249297159e-03  6.0876037955292124e-03  7.4831782930853494e-03  8.7967487886336255e-03  1.0013939217743491e-02  1.1121409847962553e-02  1.2107006172701293e-02  1.2959896473047619e-02  1.3670696070745369e-02  1.4231576343328797e-02  1.4636356693474068e-02  1.4880577861854106e-02  1.4961555243398659e-02  1.4878411202085983e-02  1.4632085764813597e-02  1.4225325491551973e-02  1.3662650744956600e-02  1.2950301994949304e-02  1.2096166170533723e-02  1.1109684393307971e-02  1.0001742680485877e-02  8.7845473814631911e-03  7.4714872097105586e-03  6.0769837570439416e-03  4.6163323434272362e-03  3.1055349823124424e-03  1.5611271537180661e-03  0.0000000000000000e+00  0.0000000000000000e+00  1.6503251875607547e-03  3.2823716962191354e-03  4.8783365184502251e-03  6.4208010446006455e-03  7.8929166303542964e-03  9.2785857303495940e-03  1.0562636901838269e-02  1.1730991837759233e-02  1.2770822466102080e-02  1.3670696070745369e-02  1.4420706364093467e-02  1.5012588486649117e-02  1.5439816031755999e-02  1.5697678398321660e-02  1.5783337057349470e-02  1.5695859670103906e-02  1.5436231401330814e-02  1.5007343210028187e-02  1.4413957349635000e-02  1.3662650744956605e-02  1.2761737311581523e-02  1.1721170625059153e-02  1.0552428616792847e-02  9.2683821629284333e-03  7.8831495401772544e-03  6.4119387546675705e-03  4.8708797197465001e-03  3.2768481850938991e-03  1.6472832249511604e-03  0.0000000000000000e+00  0.0000000000000000e+00  1.7177529053749422e-03  3.4165536726668494e-03  5.0778649371325422e-03  6.6835484928950582e-03  8.2160587637731108e-03  9.6586315940327423e-03  1.0995466594228185e-02  1.2211901136517770e-02  1.3294573970245525e-02  1.4231576343328797e-02  1.5012588486649119e-02  1.5628999362022899e-02  1.6074007699253344e-02  1.6342702557969230e-02  1.6432121942415518e-02  1.6341288362232857e-02  1.6071220653501445e-02  1.5624921830944350e-02  1.5007343210028208e-02  1.4225325491551985e-02  1.3287517917150573e-02  1.2204276961268034e-02  1.0987546308089432e-02  9.6507200617693412e-03  8.2084912535723073e-03  6.6766877462688997e-03  5.0720976072033234e-03  3.4122859451748153e-03  1.7154051041068383e-03  0.0000000000000000e+00  0.0000000000000000e+00  1.7663309566980877e-03  3.5132449799833744e-03  5.2216743195820413e-03  6.8729606513252403e-03  8.4490542966506686e-03  9.9327085875328715e-03  1.1307667558900543e-02  1.2558845013115050e-02  1.3672492878006195e-02  1.4636356693474087e-02  1.5439816031756018e-02  1.6074007699253337e-02  1.6531929694091018e-02  1.6808524107616015e-02  1.6900737456966637e-02  1.6807557309659962e-02  1.6530024493406330e-02  1.6071220653501427e-02  1.5436231401330814e-02  1.4632085764813608e-02  1.3667673080290552e-02  1.2553638834122638e-02  1.1302261255125130e-02  9.9273106666533766e-03  8.4438937279118637e-03  6.8682847336525481e-03  5.2177461124652087e-03  3.5103401843014645e-03  1.7647341288853575e-03  0.0000000000000000e+00  0.0000000000000000e+00  1.7955271178583055e-03  3.5713860087608989e-03  5.3081881213743890e-03  6.9869600370409436e-03  8.5893462311415862e-03  1.0097806870305774e-02  1.1495808792857583e-02  1.2768007685826466e-02  1.3900419350448090e-02  1.4880577861854118e-02  1.5697678398321670e-02  1.6342702557969224e-02  1.6808524107616015e-02  1.7089993324411492e-02  1.7183998393156059e-02  1.7089502700985165e-02  1.6807557309659955e-02  1.6341288362232840e-02  1.5695859670103899e-02  1.4878411202085976e-02  1.3897974633888865e-02  1.2765367492697766e-02  1.1493067730898180e-02  1.0095070775892412e-02  8.5867312272885268e-03  6.9845914140017626e-03  5.3061989942993779e-03  3.5699156992640970e-03  1.7947192056700081e-03  0.0000000000000000e+00  0.0000000000000000e+00  1.8050232490849844e-03  3.5903429744714799e-03  5.3364627235536451e-03  7.0243022970423877e-03  8.6354018171194025e-03  1.0152120781600200e-02  1.1557830236664941e-02  1.2837096070851983e-02  1.3975851314427818e-02  1.4961555243398662e-02  1.5783337057349467e-02  1.6432121942415518e-02  1.6900737456966627e-02  1.7183998393156048e-02  1.7278768569989163e-02  1.7183998393156055e-02  1.6900737456966620e-02  1.6432121942415487e-02  1.5783337057349450e-02  1.4961555243398646e-02  1.3975851314427816e-02  1.2837096070851994e-02  1.1557830236664937e-02  1.0152120781600188e-02  8.6354018171193973e-03  7.0243022970423842e-03  5.3364627235536408e-03  3.5903429744714725e-03  1.8050232490849801e-03  0.0000000000000000e+00  0.0000000000000000e+00  1.7947192056700098e-03  3.5699156992640979e-03  5.3061989942993788e-03  6.9845914140017626e-03  8.5867312272885320e-03  1.0095070775892423e-02  1.1493067730898176e-02  1.2765367492697759e-02  1.3897974633888883e-02  1.4878411202085988e-02  1.5695859670103902e-02  1.6341288362232861e-02  1.6807557309659969e-02  1.7089502700985158e-02  1.7183998393156052e-02  1.7089993324411485e-02  1.6808524107615998e-02  1.6342702557969196e-02  1.5697678398321643e-02  1.4880577861854092e-02  1.3900419350448064e-02  1.2768007685826454e-02  1.1495808792857562e-02  1.0097806870305750e-02  8.5893462311415654e-03  6.9869600370409332e-03  5.3081881213743820e-03  3.5713860087608902e-03  1.7955271178583013e-03  0.0000000000000000e+00  0.0000000000000000e+00  1.7647341288853581e-03  3.5103401843014658e-03  5.2177461124652052e-03  6.8682847336525412e-03  8.4438937279118637e-03  9.9273106666533748e-03  1.1302261255125109e-02  1.2553638834122619e-02  1.3667673080290552e-02  1.4632085764813603e-02  1.5436231401330821e-02  1.6071220653501452e-02  1.6530024493406341e-02  1.6807557309659955e-02  1.6900737456966630e-02  1.6808524107616001e-02  1.6531929694090994e-02  1.6074007699253309e-02  1.5439816031755971e-02  1.4636356693474035e-02  1.3672492878006174e-02  1.2558845013115038e-02  1.1307667558900518e-02  9.9327085875328385e-03  8.4490542966506408e-03  6.8729606513252247e-03  5.2216743195820274e-03  3.5132449799833653e-03  1.7663309566980827e-03  0.0000000000000000e+00  0.0000000000000000e+00  1.7154051041068387e-03  3.4122859451748140e-03  5.0720976072033165e-03  6.6766877462688910e-03  8.2084912535723021e-03  9.6507200617693377e-03  1.0987546308089414e-02  1.2204276961268013e-02  1.3287517917150559e-02  1.4225325491551980e-02  1.5007343210028209e-02  1.5624921830944360e-02  1.6071220653501448e-02  1.6341288362232843e-02  1.6432121942415490e-02  1.6342702557969203e-02  1.6074007699253306e-02  1.5628999362022854e-02  1.5012588486649081e-02  1.4231576343328759e-02  1.3294573970245485e-02  1.2211901136517746e-02  1.0995466594228155e-02  9.6586315940327128e-03  8.2160587637730847e-03  6.6835484928950356e-03  5.0778649371325257e-03  3.4165536726668343e-03  1.7177529053749362e-03  0.0000000000000000e+00  0.0000000000000000e+00  1.6472832249511617e-03  3.2768481850939022e-03  4.8708797197464992e-03  6.4119387546675696e-03  7.8831495401772526e-03  9.2683821629284385e-03  1.0552428616792845e-02  1.1721170625059150e-02  1.2761737311581523e-02  1.3662650744956598e-02  1.4413957349635017e-02  1.5007343210028206e-02  1.5436231401330814e-02  1.5695859670103892e-02  1.5783337057349439e-02  1.5697678398321650e-02  1.5439816031755978e-02  1.5012588486649079e-02  1.4420706364093434e-02  1.3670696070745348e-02  1.2770822466102063e-02  1.1730991837759216e-02  1.0562636901838248e-02  9.2785857303495645e-03  7.8929166303542669e-03  6.4208010446006256e-03  4.8783365184502077e-03  3.2823716962191193e-03  1.6503251875607493e-03  0.0000000000000000e+00  0.0000000000000000e+00  1.5611271537180680e-03  3.1055349823124454e-03  4.6163323434272397e-03  6.0769837570439442e-03  7.4714872097105716e-03  8.7845473814632015e-03  1.0001742680485879e-02  1.1109684393307964e-02  1.2096166170533718e-02  1.2950301994949303e-02  1.3662650744956597e-02  1.4225325491551984e-02  1.4632085764813610e-02  1.4878411202085976e-02  1.4961555243398639e-02  1.4880577861854096e-02  1.4636356693474057e-02  1.4231576343328767e-02  1.3670696070745352e-02  1.2959896473047617e-02  1.2107006172701289e-02  1.1121409847962553e-02  1.0013939217743489e-02  8.7967487886336064e-03  7.4831782930853295e-03  6.0876037955291968e-03  4.6252794249297038e-03  3.1121716181728661e-03  1.5647876404313497e-03  0.0000000000000000e+00  0.0000000000000000e+00  1.4578943180944869e-03  2.9002497653463273e-03  4.3112829391789252e-03  5.6755420549343683e-03  6.9780734204294296e-03  8.2045834794520853e-03  9.3415949459990499e-03  1.0376595490166212e-02  1.1298177350638403e-02  1.2096166170533712e-02  1.2761737311581501e-02  1.3287517917150561e-02  1.3667673080290561e-02  1.3897974633888869e-02  1.3975851314427815e-02  1.3900419350448072e-02  1.3672492878006180e-02  1.3294573970245485e-02  1.2770822466102059e-02  1.2107006172701286e-02  1.1310432376782250e-02  1.0389861914993423e-02  9.3554073080086998e-03  8.2184166514008353e-03  6.9913450750795853e-03  5.6876156359229064e-03  4.3214715014055043e-03  2.9078212226219956e-03  1.4620787882423849e-03  0.0000000000000000e+00  0.0000000000000000e+00  1.3387299314184936e-03  2.6632694398432246e-03  3.9591139511899682e-03  5.2120632565939981e-03  6.4083748862804012e-03  7.5349131639434281e-03  8.5792926581511053e-03  9.5300146939798994e-03  1.0376595490166219e-02  1.1109684393307961e-02  1.1721170625059141e-02  1.2204276961268027e-02  1.2553638834122628e-02  1.2765367492697762e-02  1.2837096070851994e-02  1.2768007685826454e-02  1.2558845013115027e-02  1.2211901136517746e-02  1.1730991837759219e-02  1.1121409847962555e-02  1.0389861914993430e-02  9.5443898303828288e-03  8.5942767956290675e-03  7.5499406839389877e-03  6.4228158693770358e-03  5.2252253554263091e-03  3.9702449462179117e-03  2.6715611712473382e-03  1.3433245949418492e-03  0.0000000000000000e+00  0.0000000000000000e+00  1.2049540710445154e-03  2.3972186159982086e-03  3.5637243593011122e-03  4.6916764783659836e-03  5.7686932203434155e-03  6.7829402329674104e-03  7.7232596209152104e-03  8.5792926581510966e-03  9.3415949459990429e-03  1.0001742680485872e-02  1.0552428616792842e-02  1.0987546308089418e-02  1.1302261255125115e-02  1.1493067730898174e-02  1.1557830236664934e-02  1.1495808792857566e-02  1.1307667558900518e-02  1.0995466594228160e-02  1.0562636901838254e-02  1.0013939217743484e-02  9.3554073080086946e-03  8.5942767956290640e-03  7.7389007524171511e-03  6.7986534518488196e-03  5.7838237891968966e-03  4.7054999429825290e-03  3.5754468881543668e-03  2.4059783846943116e-03  1.2098250466529052e-03  0.0000000000000000e+00  0.0000000000000000e+00  1.0580471044387833e-03  2.1050404731734825e-03  3.1294861035643163e-03  4.1201326476626990e-03  5.0660936619252323e-03  5.9569654860020943e-03  6.7829402329674122e-03  7.5349131639434221e-03  8.2045834794520871e-03  8.7845473814631911e-03  9.2683821629284298e-03  9.6507200617693308e-03  9.9273106666533696e-03  1.0095070775892407e-02  1.0152120781600179e-02  1.0097806870305743e-02  9.9327085875328298e-03  9.6586315940327110e-03  9.2785857303495679e-03  8.7967487886336047e-03  8.2184166514008318e-03  7.5499406839389877e-03  6.7986534518488179e-03  5.9727839748453205e-03  5.0813638265986456e-03  4.1341254608327797e-03  3.1413942074639449e-03  2.1139754633273380e-03  1.0630387044379620e-03  0.0000000000000000e+00  0.0000000000000000e+00  8.9963383697944804e-04  1.7899649089071542e-03  2.6611962092164270e-03  3.5037408776500225e-03  4.3083262982295855e-03  5.0660936619252358e-03  5.7686932203434215e-03  6.4083748862804003e-03  6.9780734204294270e-03  7.4714872097105655e-03  7.8831495401772509e-03  8.2084912535722952e-03  8.4438937279118585e-03  8.5867312272885285e-03  8.6354018171193939e-03  8.5893462311415567e-03  8.4490542966506408e-03  8.2160587637730813e-03  7.8929166303542703e-03  7.4831782930853295e-03  6.9913450750795835e-03  6.4228158693770349e-03  5.7838237891968966e-03  5.0813638265986474e-03  4.3231125966464281e-03  3.5173413013661258e-03  2.6728231227187292e-03  1.7987364072373409e-03  9.0456530894080249e-04  0.0000000000000000e+00  0.0000000000000000e+00  7.3146692623710975e-04  1.4554747960034103e-03  2.1640255362781677e-03  2.8492999060581300e-03  3.5037408776500203e-03  4.1201326476627007e-03  4.6916764783659845e-03  5.2120632565939972e-03  5.6755420549343709e-03  6.0769837570439425e-03  6.4119387546675653e-03  6.6766877462688910e-03  6.8682847336525394e-03  6.9845914140017522e-03  7.0243022970423747e-03  6.9869600370409245e-03  6.8729606513252160e-03  6.6835484928950313e-03  6.4208010446006212e-03  6.0876037955291959e-03  5.6876156359229055e-03  5.2252253554263082e-03  4.7054999429825