<?xml version="1.0"?>
<VTKFile type="UnstructuredGrid"  version="0.1"  >
<UnstructuredGrid>
<Piece  NumberOfPoints="961" NumberOfCells="1800">
<Points>
<DataArray  type="Float64"  NumberOfComponents="3"  format="ascii">-2 -2 0  -1.866666666666667 -2 0  -1.733333333333333 -2 0  -1.6 -2 0  -1.466666666666667 -2 0  -1.333333333333333 -2 0  -1.2 -2 0  -1.066666666666667 -2 0  -0.9333333333333333 -2 0  -0.8 -2 0  -0.6666666666666667 -2 0  -0.5333333333333334 -2 0  -0.3999999999999999 -2 0  -0.2666666666666666 -2 0  -0.1333333333333333 -2 0  0 -2 0  0.1333333333333333 -2 0  0.2666666666666666 -2 0  0.3999999999999999 -2 0  0.5333333333333332 -2 0  0.6666666666666665 -2 0  0.7999999999999998 -2 0  0.9333333333333331 -2 0  1.066666666666667 -2 0  1.2 -2 0  1.333333333333333 -2 0  1.466666666666667 -2 0  1.6 -2 0  1.733333333333333 -2 0  1.866666666666667 -2 0  2 -2 0  -2 -1.866666666666667 0  -1.866666666666667 -1.866666666666667 0  -1.733333333333333 -1.866666666666667 0  -1.6 -1.866666666666667 0  -1.466666666666667 -1.866666666666667 0  -1.333333333333333 -1.866666666666667 0  -1.2 -1.866666666666667 0  -1.066666666666667 -1.866666666666667 0  -0.9333333333333333 -1.866666666666667 0  -0.8 -1.866666666666667 0  -0.6666666666666667 -1.866666666666667 0  -0.5333333333333334 -1.866666666666667 0  -0.3999999999999999 -1.866666666666667 0  -0.2666666666666666 -1.866666666666667 0  -0.1333333333333333 -1.866666666666667 0  0 -1.866666666666667 0  0.1333333333333333 -1.866666666666667 0  0.2666666666666666 -1.866666666666667 0  0.3999999999999999 -1.866666666666667 0  0.5333333333333332 -1.866666666666667 0  0.6666666666666665 -1.866666666666667 0  0.7999999999999998 -1.866666666666667 0  0.9333333333333331 -1.866666666666667 0  1.066666666666667 -1.866666666666667 0  1.2 -1.866666666666667 0  1.333333333333333 -1.866666666666667 0  1.466666666666667 -1.866666666666667 0  1.6 -1.866666666666667 0  1.733333333333333 -1.866666666666667 0  1.866666666666667 -1.866666666666667 0  2 -1.866666666666667 0  -2 -1.733333333333333 0  -1.866666666666667 -1.733333333333333 0  -1.733333333333333 -1.733333333333333 0  -1.6 -1.733333333333333 0  -1.466666666666667 -1.733333333333333 0  -1.333333333333333 -1.733333333333333 0  -1.2 -1.733333333333333 0  -1.066666666666667 -1.733333333333333 0  -0.9333333333333333 -1.733333333333333 0  -0.8 -1.733333333333333 0  -0.6666666666666667 -1.733333333333333 0  -0.5333333333333334 -1.733333333333333 0  -0.3999999999999999 -1.733333333333333 0  -0.2666666666666666 -1.733333333333333 0  -0.1333333333333333 -1.733333333333333 0  0 -1.733333333333333 0  0.1333333333333333 -1.733333333333333 0  0.2666666666666666 -1.733333333333333 0  0.3999999999999999 -1.733333333333333 0  0.5333333333333332 -1.733333333333333 0  0.6666666666666665 -1.733333333333333 0  0.7999999999999998 -1.733333333333333 0  0.9333333333333331 -1.733333333333333 0  1.066666666666667 -1.733333333333333 0  1.2 -1.733333333333333 0  1.333333333333333 -1.733333333333333 0  1.466666666666667 -1.733333333333333 0  1.6 -1.733333333333333 0  1.733333333333333 -1.733333333333333 0  1.866666666666667 -1.733333333333333 0  2 -1.733333333333333 0  -2 -1.6 0  -1.866666666666667 -1.6 0  -1.733333333333333 -1.6 0  -1.6 -1.6 0  -1.466666666666667 -1.6 0  -1.333333333333333 -1.6 0  -1.2 -1.6 0  -1.066666666666667 -1.6 0  -0.9333333333333333 -1.6 0  -0.8 -1.6 0  -0.6666666666666667 -1.6 0  -0.5333333333333334 -1.6 0  -0.3999999999999999 -1.6 0  -0.2666666666666666 -1.6 0  -0.1333333333333333 -1.6 0  0 -1.6 0  0.1333333333333333 -1.6 0  0.2666666666666666 -1.6 0  0.3999999999999999 -1.6 0  0.5333333333333332 -1.6 0  0.6666666666666665 -1.6 0  0.7999999999999998 -1.6 0  0.9333333333333331 -1.6 0  1.066666666666667 -1.6 0  1.2 -1.6 0  1.333333333333333 -1.6 0  1.466666666666667 -1.6 0  1.6 -1.6 0  1.733333333333333 -1.6 0  1.866666666666667 -1.6 0  2 -1.6 0  -2 -1.466666666666667 0  -1.866666666666667 -1.466666666666667 0  -1.733333333333333 -1.466666666666667 0  -1.6 -1.466666666666667 0  -1.466666666666667 -1.466666666666667 0  -1.333333333333333 -1.466666666666667 0  -1.2 -1.466666666666667 0  -1.066666666666667 -1.466666666666667 0  -0.9333333333333333 -1.466666666666667 0  -0.8 -1.466666666666667 0  -0.6666666666666667 -1.466666666666667 0  -0.5333333333333334 -1.466666666666667 0  -0.3999999999999999 -1.466666666666667 0  -0.2666666666666666 -1.466666666666667 0  -0.1333333333333333 -1.466666666666667 0  0 -1.466666666666667 0  0.1333333333333333 -1.466666666666667 0  0.2666666666666666 -1.466666666666667 0  0.3999999999999999 -1.466666666666667 0  0.5333333333333332 -1.466666666666667 0  0.6666666666666665 -1.466666666666667 0  0.7999999999999998 -1.466666666666667 0  0.9333333333333331 -1.466666666666667 0  1.066666666666667 -1.466666666666667 0  1.2 -1.466666666666667 0  1.333333333333333 -1.466666666666667 0  1.466666666666667 -1.466666666666667 0  1.6 -1.466666666666667 0  1.733333333333333 -1.466666666666667 0  1.866666666666667 -1.466666666666667 0  2 -1.466666666666667 0  -2 -1.333333333333333 0  -1.866666666666667 -1.333333333333333 0  -1.733333333333333 -1.333333333333333 0  -1.6 -1.333333333333333 0  -1.466666666666667 -1.333333333333333 0  -1.333333333333333 -1.333333333333333 0  -1.2 -1.333333333333333 0  -1.066666666666667 -1.333333333333333 0  -0.9333333333333333 -1.333333333333333 0  -0.8 -1.333333333333333 0  -0.6666666666666667 -1.333333333333333 0  -0.5333333333333334 -1.333333333333333 0  -0.3999999999999999 -1.333333333333333 0  -0.2666666666666666 -1.333333333333333 0  -0.1333333333333333 -1.333333333333333 0  0 -1.333333333333333 0  0.1333333333333333 -1.333333333333333 0  0.2666666666666666 -1.333333333333333 0  0.3999999999999999 -1.333333333333333 0  0.5333333333333332 -1.333333333333333 0  0.6666666666666665 -1.333333333333333 0  0.7999999999999998 -1.333333333333333 0  0.9333333333333331 -1.333333333333333 0  1.066666666666667 -1.333333333333333 0  1.2 -1.333333333333333 0  1.333333333333333 -1.333333333333333 0  1.466666666666667 -1.333333333333333 0  1.6 -1.333333333333333 0  1.733333333333333 -1.333333333333333 0  1.866666666666667 -1.333333333333333 0  2 -1.333333333333333 0  -2 -1.2 0  -1.866666666666667 -1.2 0  -1.733333333333333 -1.2 0  -1.6 -1.2 0  -1.466666666666667 -1.2 0  -1.333333333333333 -1.2 0  -1.2 -1.2 0  -1.066666666666667 -1.2 0  -0.9333333333333333 -1.2 0  -0.8 -1.2 0  -0.6666666666666667 -1.2 0  -0.5333333333333334 -1.2 0  -0.3999999999999999 -1.2 0  -0.2666666666666666 -1.2 0  -0.1333333333333333 -1.2 0  0 -1.2 0  0.1333333333333333 -1.2 0  0.2666666666666666 -1.2 0  0.3999999999999999 -1.2 0  0.5333333333333332 -1.2 0  0.6666666666666665 -1.2 0  0.7999999999999998 -1.2 0  0.9333333333333331 -1.2 0  1.066666666666667 -1.2 0  1.2 -1.2 0  1.333333333333333 -1.2 0  1.466666666666667 -1.2 0  1.6 -1.2 0  1.733333333333333 -1.2 0  1.866666666666667 -1.2 0  2 -1.2 0  -2 -1.066666666666667 0  -1.866666666666667 -1.066666666666667 0  -1.733333333333333 -1.066666666666667 0  -1.6 -1.066666666666667 0  -1.466666666666667 -1.066666666666667 0  -1.333333333333333 -1.066666666666667 0  -1.2 -1.066666666666667 0  -1.066666666666667 -1.066666666666667 0  -0.9333333333333333 -1.066666666666667 0  -0.8 -1.066666666666667 0  -0.6666666666666667 -1.066666666666667 0  -0.5333333333333334 -1.066666666666667 0  -0.3999999999999999 -1.066666666666667 0  -0.2666666666666666 -1.066666666666667 0  -0.1333333333333333 -1.066666666666667 0  0 -1.066666666666667 0  0.1333333333333333 -1.066666666666667 0  0.2666666666666666 -1.066666666666667 0  0.3999999999999999 -1.066666666666667 0  0.5333333333333332 -1.066666666666667 0  0.6666666666666665 -1.066666666666667 0  0.7999999999999998 -1.066666666666667 0  0.9333333333333331 -1.066666666666667 0  1.066666666666667 -1.066666666666667 0  1.2 -1.066666666666667 0  1.333333333333333 -1.066666666666667 0  1.466666666666667 -1.066666666666667 0  1.6 -1.066666666666667 0  1.733333333333333 -1.066666666666667 0  1.866666666666667 -1.066666666666667 0  2 -1.066666666666667 0  -2 -0.9333333333333333 0  -1.866666666666667 -0.9333333333333333 0  -1.733333333333333 -0.9333333333333333 0  -1.6 -0.9333333333333333 0  -1.466666666666667 -0.9333333333333333 0  -1.333333333333333 -0.9333333333333333 0  -1.2 -0.9333333333333333 0  -1.066666666666667 -0.9333333333333333 0  -0.9333333333333333 -0.9333333333333333 0  -0.8 -0.9333333333333333 0  -0.6666666666666667 -0.9333333333333333 0  -0.5333333333333334 -0.9333333333333333 0  -0.3999999999999999 -0.9333333333333333 0  -0.2666666666666666 -0.9333333333333333 0  -0.1333333333333333 -0.9333333333333333 0  0 -0.9333333333333333 0  0.1333333333333333 -0.9333333333333333 0  0.2666666666666666 -0.9333333333333333 0  0.3999999999999999 -0.9333333333333333 0  0.5333333333333332 -0.9333333333333333 0  0.6666666666666665 -0.9333333333333333 0  0.7999999999999998 -0.9333333333333333 0  0.9333333333333331 -0.9333333333333333 0  1.066666666666667 -0.9333333333333333 0  1.2 -0.9333333333333333 0  1.333333333333333 -0.9333333333333333 0  1.466666666666667 -0.9333333333333333 0  1.6 -0.9333333333333333 0  1.733333333333333 -0.9333333333333333 0  1.866666666666667 -0.9333333333333333 0  2 -0.9333333333333333 0  -2 -0.8 0  -1.866666666666667 -0.8 0  -1.733333333333333 -0.8 0  -1.6 -0.8 0  -1.466666666666667 -0.8 0  -1.333333333333333 -0.8 0  -1.2 -0.8 0  -1.066666666666667 -0.8 0  -0.9333333333333333 -0.8 0  -0.8 -0.8 0  -0.6666666666666667 -0.8 0  -0.5333333333333334 -0.8 0  -0.3999999999999999 -0.8 0  -0.2666666666666666 -0.8 0  -0.1333333333333333 -0.8 0  0 -0.8 0  0.1333333333333333 -0.8 0  0.2666666666666666 -0.8 0  0.3999999999999999 -0.8 0  0.5333333333333332 -0.8 0  0.6666666666666665 -0.8 0  0.7999999999999998 -0.8 0  0.9333333333333331 -0.8 0  1.066666666666667 -0.8 0  1.2 -0.8 0  1.333333333333333 -0.8 0  1.466666666666667 -0.8 0  1.6 -0.8 0  1.733333333333333 -0.8 0  1.866666666666667 -0.8 0  2 -0.8 0  -2 -0.6666666666666667 0  -1.866666666666667 -0.
[...]
<PointData  Scalars="f_468"> 
<DataArray  type="Float64"  Name="f_468"  format="ascii">0.0000000000000000e+00  0.0000000000000000e+00  0.0000000000000000e+00  0.0000000000000000e+00  0.0000000000000000e+00  0.0000000000000000e+00  0.0000000000000000e+00  0.0000000000000000e+00  0.0000000000000000e+00  0.0000000000000000e+00  0.0000000000000000e+00  0.0000000000000000e+00  0.0000000000000000e+00  0.0000000000000000e+00  0.0000000000000000e+00  0.0000000000000000e+00  0.0000000000000000e+00  0.0000000000000000e+00  0.0000000000000000e+00  0.0000000000000000e+00  0.0000000000000000e+00  0.0000000000000000e+00  0.0000000000000000e+00  0.0000000000000000e+00  0.0000000000000000e+00  0.0000000000000000e+00  0.0000000000000000e+00  0.0000000000000000e+00  0.0000000000000000e+00  0.0000000000000000e+00  0.0000000000000000e+00  0.0000000000000000e+00  5.5744031081048269e-04  1.1109303074204621e-03  1.6570611916070645e-03  2.1918582444943684e-03  2.7107116298295312e-03  3.2083369649015541e-03  3.6788087854670187e-03  4.1156798762284758e-03  4.5121838766917855e-03  4.8615077236984607e-03  5.1571122873522030e-03  5.3930738875400267e-03  5.5644165312102589e-03  5.6674048967690193e-03  5.6997712840740058e-03  5.6608556331846412e-03  5.5516457048815420e-03  5.3747138033266332e-03  5.1340560621221743e-03  4.8348493312700145e-03  4.4831481885668836e-03  4.0855498198981537e-03  3.6488569824497242e-03  3.1797687965503607e-03  2.6846258444959462e-03  2.1692304698585812e-03  1.6387561637928277e-03  1.0977531427505153e-03  5.5025446873038992e-04  0.0000000000000000e+00  0.0000000000000000e+00  1.1109303074204630e-03  2.2142839377676808e-03  3.3030563968679239e-03  4.3692674195734181e-03  5.4037161397848775e-03  6.3958715359783988e-03  7.3339286048684895e-03  8.2050417672736384e-03  8.9957264175435352e-03  9.6924007120234197e-03  1.0282024132660623e-02  1.0752778280303582e-02  1.1094729717842847e-02  1.1300415036660207e-02  1.1365294648805851e-02  1.1288033505497643e-02  1.1070582848380143e-02  1.0718055608321224e-02  1.0238407297151567e-02  9.6419522393351494e-03  8.9407599537494886e-03  8.1479869486610346e-03  7.2772041556912097e-03  6.3417793108731914e-03  5.3543670279374315e-03  4.3265479418712668e-03  3.2686435192178500e-03  2.1897167752158394e-03  1.0977531427505153e-03  0.0000000000000000e+00  0.0000000000000000e+00  1.6570611916070660e-03  3.3030563968679261e-03  4.9274059715196817e-03  6.5181553087761291e-03  8.0615661443886460e-03  9.5419314482207487e-03  1.0941648506981826e-02  1.2241561370338683e-02  1.3421556548162844e-02  1.4461369347279988e-02  1.5341535648808684e-02  1.6044407609338979e-02  1.6555143405933732e-02  1.6862581645631428e-02  1.6959920454030750e-02  1.6845138664325320e-02  1.6521120228674659e-02  1.5995470580622190e-02  1.5280042387574036e-02  1.4390215032602224e-02  1.3343994549060580e-02  1.2161016392995090e-02  1.0861540899278902e-02  9.4655299206602411e-03  7.9918832988823355e-03  6.4578966177205217e-03  4.8789789766871105e-03  3.2686435192178492e-03  1.6387561637928279e-03  0.0000000000000000e+00  0.0000000000000000e+00  2.1918582444943701e-03  4.3692674195734207e-03  6.5181553087761291e-03  8.6226747734278950e-03  1.0664645256982594e-02  1.2623294436848835e-02  1.4475345941152636e-02  1.6195466477676137e-02  1.7757050038744029e-02  1.9133282298430091e-02  2.0298398726018515e-02  2.1229028458942752e-02  2.1905504913756618e-02  2.2313024723535697e-02  2.2442548949450834e-02  2.2291363482361971e-02  2.1863246868264710e-02  2.1168230309533229e-02  2.0221972606577092e-02  1.9044808453806978e-02  1.7660558200846447e-02  1.6095208001475028e-02  1.4375579225063110e-02  1.2528104270248391e-02  1.0577812866216682e-02  8.5476100485367881e-03  6.4578966177205217e-03  4.3265479418712668e-03  2.1692304698585816e-03  0.0000000000000000e+00  0.0000000000000000e+00  2.7107116298295329e-03  5.4037161397848827e-03  8.0615661443886495e-03  1.0664645256982595e-02  1.3190468683317171e-02  1.5613354855708507e-02  1.7904526586440043e-02  2.0032658475581125e-02  2.1964842843202683e-02  2.3667903740255306e-02  2.5109952034020663e-02  2.6262047986063054e-02  2.7099823994194035e-02  2.7604920834490222e-02  2.7766105932494619e-02  2.7579970524666913e-02  2.7051141263674350e-02  2.6191986987599010e-02  2.5021848432443237e-02  2.3565862842794945e-02  2.1853492277003131e-02  1.9916890266222120e-02  1.7789253909703019e-02  1.5503306425139118e-02  1.3090039055093844e-02  1.0577812866216682e-02  7.9918832988823390e-03  5.3543670279374324e-03  2.6846258444959471e-03  0.0000000000000000e+00  0.0000000000000000e+00  3.2083369649015601e-03  6.3958715359784058e-03  9.5419314482207539e-03  1.2623294436848833e-02  1.5613354855708510e-02  1.8481728360680145e-02  2.1194365304688902e-02  2.3714193333382743e-02  2.6002256691893821e-02  2.8019269049859963e-02  2.9727453292341974e-02  3.1092510168804068e-02  3.2085541302882575e-02  3.2684752722645143e-02  3.2876782932928721e-02  3.2657532992852234e-02  3.2032421809998012e-02  3.1016043326950564e-02  2.9631258034954613e-02  2.7907803643077597e-02  2.5880553478391050e-02  2.3587581960548446e-02  2.1068211347354787e-02  1.8361211626244090e-02  1.5503306425139109e-02  1.2528104270248386e-02  9.4655299206602428e-03  6.3417793108731906e-03  3.1797687965503607e-03  0.0000000000000000e+00  0.0000000000000000e+00  3.6788087854670217e-03  7.3339286048684973e-03  1.0941648506981837e-02  1.4475345941152655e-02  1.7904526586440057e-02  2.1194365304688923e-02  2.4305830309233063e-02  2.7196414807048645e-02  2.9821439386032135e-02  3.2135830111927118e-02  3.4096227434732083e-02  3.5663244667505388e-02  3.6803675841385983e-02  3.7492453326813176e-02  3.7714175943044270e-02  3.7464066512548876e-02  3.6748270217448378e-02  3.5583466427081316e-02  3.3995830674075495e-02  3.2019443662549781e-02  2.9694294524754382e-02  2.7064061011736865e-02  2.4173866519536114e-02  2.1068211347354808e-02  1.7789253909703033e-02  1.4375579225063113e-02  1.0861540899278901e-02  7.2772041556912088e-03  3.6488569824497242e-03  0.0000000000000000e+00  0.0000000000000000e+00  4.1156798762284827e-03  8.2050417672736506e-03  1.2241561370338711e-02  1.6195466477676172e-02  2.0032658475581160e-02  2.3714193333382774e-02  2.7196414807048666e-02  3.0431767763829626e-02  3.3370251158892791e-02  3.5961404808110685e-02  3.8156668144736859e-02  3.9911908305920347e-02  4.1189893481145351e-02  4.1962487909604815e-02  4.2212367483339154e-02  4.1934097557208797e-02  4.1134473123441047e-02  3.9832090109215949e-02  3.8056188248399410e-02  3.5844873483743184e-02  3.3242884363076479e-02  3.0299106795478873e-02  2.7064061011736862e-02  2.3587581960548460e-02  1.9916890266222138e-02  1.6095208001475049e-02  1.2161016392995090e-02  8.1479869486610380e-03  4.0855498198981554e-03  0.0000000000000000e+00  0.0000000000000000e+00  4.5121838766917950e-03  8.9957264175435560e-03  1.3421556548162872e-02  1.7757050038744077e-02  2.1964842843202718e-02  2.6002256691893863e-02  2.9821439386032173e-02  3.3370251158892812e-02  3.6593853417114082e-02  3.9436884351182033e-02  4.1846044377131540e-02  4.3772869381533970e-02  4.5176446032286141e-02  4.6025823686006419e-02  4.6301901964078018e-02  4.5998619671350847e-02  4.5123334851333803e-02  4.3696360987338763e-02  4.1749703049665791e-02  3.9325111263889434e-02  3.6471632648028253e-02  3.3242884363076507e-02  2.9694294524754427e-02  2.5880553478391116e-02  2.1853492277003173e-02  1.7660558200846495e-02  1.3343994549060604e-02  8.9407599537495042e-03  4.4831481885668897e-03  0.0000000000000000e+00  0.0000000000000000e+00  4.8615077236984728e-03  9.6924007120234405e-03  1.4461369347280031e-02  1.9133282298430143e-02  2.3667903740255371e-02  2.8019269049860029e-02  3.2135830111927166e-02  3.5961404808110720e-02  3.9436884351182040e-02  4.2502574616281957e-02  4.5100981147473046e-02  4.7179798814750387e-02  4.8694841295502798e-02  4.9612645587383652e-02  4.9912512973593830e-02  4.9587797901128695e-02  4.8646325225451308e-02  4.7109897315356558e-02  4.5012937390384020e-02  4.2400395560252595e-02  3.9325111263889448e-02  3.5844873483743225e-02  3.2019443662549850e-02  2.7907803643077676e-02  2.3565862842795004e-02  1.9044808453807027e-02  1.4390215032602256e-02  9.6419522393351668e-03  4.8348493312700240e-03  0.0000000000000000e+00  0.0000000000000000e+00  5.1571122873522194e-03  1.0282024132660657e-02  1.5341535648808736e-02  2.0298398726018577e-02  2.5109952034020739e-02  2.9727453292342054e-02  3.4096227434732167e-02  3.8156668144736901e-02  4.1846044377131554e-02  4.5100981147473081e-02  4.7860413171247985e-02  5.0068758028351812e-02  5.1679027884369705e-02  5.2655598557411171e-02  5.2976382278379155e-02  5.2634203385545267e-02  5.1637249277628312e-02  5.0008554912363570e-02  4.7784569274154455e-02  4.5012937390384047e-02  4.1749703049665805e-02  3.8056188248399479e-02  3.3995830674075578e-02  2.9631258034954720e-02  2.5021848432443306e-02  2.0221972606577147e-02  1.5280042387574079e-02  1.0238407297151586e-02  5.1340560621221856e-03  0.0000000000000000e+00  0.0000000000000000e+00  5.3930738875400475e-03  1.0752778280303622e-02  1.6044407609339034e-02  2.1229028458942839e-02  2.6262047986063148e-02  3.1092510168804179e-02  3.5663244667505471e-02  3.9911908305920396e-02  4.3772869381533991e-02  4.7179798814750422e-02  5.0068758028351833e-02  5.2381518920061994e-02  5.4068822094513108e-02  5.5093278972123634e-02  5.5431651944829609e-02  5.5076301854735693e-02  5.4035668379857765e-02  5.2333738792709646e-02  5.0008554912363563e-02  4.7109897315356544e-02  4.3696360987338756e-02  3.9832090109216012e-02  3.5583466427081392e-02  3.1016043326950633e-02  2.6191986987599052e-02  2.1168230309533263e-02  1.5995470580622211e-02  1.0718055608321240e-02  5.3747138033266410e-03  0.0000000000000000e+00  0.0000000000000000e+00  5.5644165312102858e-03  1.1094729717842906e-02  1.6555143405933812e-02  2.1905504913756743e-02  2.7099823994194198e-02  3.2085541302882749e-02  3.6803675841386135e-02  4.1189893481145427e-02  4.5176446032286176e-02  4.8694841295502868e-02  5.1679027884369746e-02  5.4068822094513150e-02  5.5813273676479168e-02  5.6873666495367417e-02  5.7225879236993786e-02  5.6861887954405818e-02  5.5790270847477889e-02  5.4035668379857779e-02  5.1637249277628285e-02  4.8646325225451308e-02  4.5123334851333845e-02  4.1134473123441123e-02  3.6748270217448434e-02  3.2032421809998109e-02  2.7051141263674403e-02  2.1863246868264748e-02  1.6521120228674684e-02  1.1070582848380164e-02  5.5516457048815542e-03  0.0000000000000000e+00  0.0000000000000000e+00  5.6674048967690540e-03  1.1300415036660280e-02  1.6862581645631532e-02  2.2313024723535847e-02  2.7604920834490423e-02  3.2684752722645330e-02  3.7492453326813328e-02  4.1962487909604947e-02  4.6025823686006516e-02  4.9612645587383784e-02  5.2655598557411296e-02  5.5093278972123731e-02  5.6873666495367466e-02  5.7957186475961903e-02  5.8319122415620650e-02  5.7951155482862005e-02  5.6861887954405839e-02  5.5076301854735721e-02  5.2634203385545267e-02  4.9587797901128702e-02  4.5998619671350889e-02  4.1934097557208873e-02  3.7464066512548966e-02  3.2657532992852310e-02  2.7579970524666948e-02  2.2291363482362013e-02  1.6845138664325351e-02  1.1288033505497666e-02  5.6608556331846499e-03  0.0000000000000000e+00  0.0000000000000000e+00  5.6997712840740448e-03  1.1365294648805934e-02  1.6959920454030865e-02  2.2442548949450993e-02  2.7766105932494824e-02  3.2876782932928922e-02  3.7714175943044471e-02  4.2212367483339348e-02  4.6301901964078254e-02  4.9912512973594038e-02  5.2976382278379336e-02  5.5431651944829748e-02  5.7225879236993918e-02  5.8319122415620712e-02  5.8686374854163857e-02  5.8319122415620636e-02  5.7225879236993786e-02  5.5431651944829595e-02  5.2976382278379128e-02  4.9912512973593837e-02  4.6301901964078102e-02  4.2212367483339217e-02  3.7714175943044333e-02  3.2876782932928776e-02  2.7766105932494657e-02  2.2442548949450865e-02  1.6959920454030778e-02  1.1365294648805868e-02  5.6997712840740128e-03  0.0000000000000000e+00  0.0000000000000000e+00  5.6608556331846829e-03  1.1288033505497732e-02  1.6845138664325448e-02  2.2291363482362138e-02  2.7579970524667114e-02  3.2657532992852456e-02  3.7464066512549091e-02  4.1934097557209025e-02  4.5998619671351090e-02  4.9587797901128945e-02  5.2634203385545510e-02  5.5076301854735922e-02  5.6861887954406033e-02  5.7951155482862102e-02  5.8319122415620706e-02  5.7957186475961944e-02  5.6873666495367445e-02  5.5093278972123655e-02  5.2655598557411129e-02  4.9612645587383652e-02  4.6025823686006440e-02  4.1962487909604870e-02  3.7492453326813245e-02  3.2684752722645212e-02  2.7604920834490263e-02  2.2313024723535729e-02  1.6862581645631442e-02  1.1300415036660218e-02  5.6674048967690228e-03  0.0000000000000000e+00  0.0000000000000000e+00  5.5516457048815854e-03  1.1070582848380228e-02  1.6521120228674774e-02  2.1863246868264869e-02  2.7051141263674541e-02  3.2032421809998241e-02  3.6748270217448628e-02  4.1134473123441304e-02  4.5123334851334095e-02  4.8646325225451620e-02  5.1637249277628555e-02  5.4035668379858043e-02  5.5790270847478118e-02  5.6861887954406019e-02  5.7225879236993897e-02  5.6873666495367479e-02  5.5813273676479168e-02  5.4068822094513115e-02  5.1679027884369691e-02  4.8694841295502805e-02  4.5176446032286155e-02  4.1189893481145413e-02  3.6803675841386038e-02  3.2085541302882645e-02  2.7099823994194066e-02  2.1905504913756649e-02  1.6555143405933732e-02  1.1094729717842850e-02  5.5644165312102615e-03  0.0000000000000000e+00  0.0000000000000000e+00  5.3747138033266775e-03  1.0718055608321311e-02  1.5995470580622319e-02  2.1168230309533399e-02  2.6191986987599235e-02  3.1016043326950807e-02  3.5583466427081559e-02  3.9832090109216192e-02  4.3696360987339013e-02  4.7109897315356829e-02  5.0008554912363855e-02  5.2333738792709951e-02  5.4035668379858057e-02  5.5076301854735929e-02  5.5431651944829748e-02  5.5093278972123745e-02  5.4068822094513171e-02  5.2381518920061952e-02  5.0068758028351805e-02  4.7179798814750387e-02  4.3772869381533970e-02  3.9911908305920389e-02  3.5663244667505471e-02  3.1092510168804120e-02  2.6262047986063079e-02  2.1229028458942770e-02  1.6044407609338986e-02  1.0752778280303587e-02  5.3930738875400284e-03  0.0000000000000000e+00  0.0000000000000000e+00  5.1340560621222185e-03  1.0238407297151654e-02  1.5280042387574166e-02  2.0221972606577269e-02  2.5021848432443459e-02  2.9631258034954863e-02  3.3995830674075744e-02  3.8056188248399646e-02  4.1749703049666048e-02  4.5012937390384269e-02  4.7784569274154691e-02  5.0008554912363841e-02  5.1637249277628548e-02  5.2634203385545510e-02  5.2976382278379357e-02  5.2655598557411296e-02  5.1679027884369788e-02  5.0068758028351826e-02  4.7860413171247985e-02  4.5100981147473025e-02  4.1846044377131547e-02  3.8156668144736880e-02  3.4096227434732153e-02  2.9727453292341995e-02  2.5109952034020670e-02  2.0298398726018511e-02  1.5341535648808691e-02  1.0282024132660623e-02  5.1571122873522030e-03  0.0000000000000000e+00  0.0000000000000000e+00  4.8348493312700544e-03  9.6419522393352327e-03  1.4390215032602351e-02  1.9044808453807155e-02  2.3565862842795184e-02  2.7907803643077843e-02  3.2019443662550023e-02  3.5844873483743420e-02  3.9325111263889677e-02  4.2400395560252852e-02  4.5012937390384297e-02  4.7109897315356850e-02  4.8646325225451634e-02  4.9587797901128966e-02  4.9912512973594059e-02  4.9612645587383833e-02  4.8694841295502972e-02  4.7179798814750484e-02  4.5100981147473101e-02  4.2502574616282006e-02  3.9436884351182061e-02  3.5961404808110720e-02  3.2135830111927173e-02  2.8019269049859998e-02  2.3667903740255306e-02  1.9133282298430095e-02  1.4461369347279998e-02  9.6924007120234249e-03  4.8615077236984624e-03  0.0000000000000000e+00  0.0000000000000000e+00  4.4831481885669192e-03  8.9407599537495649e-03  1.3343994549060696e-02  1.7660558200846613e-02  2.1853492277003349e-02  2.5880553478391282e-02  2.9694294524754635e-02  3.3242884363076722e-02  3.6471632648028475e-02  3.9325111263889691e-02  4.1749703049666076e-02  4.3696360987339061e-02  4.5123334851334136e-02  4.5998619671351139e-02  4.6301901964078282e-02  4.6025823686006620e-02  4.5176446032286349e-02  4.3772869381534102e-02  4.1846044377131651e-02  3.9436884351182123e-02  3.6593853417114137e-02  3.3370251158892847e-02  2.9821439386032187e-02  2.6002256691893870e-02  2.1964842843202700e-02  1.7757050038744056e-02  1.3421556548162860e-02  8.9957264175435474e-03  4.5121838766917898e-03  0.0000000000000000e+00  0.0000000000000000e+00  4.0855498198981858e-03  8.1479869486610953e-03  1.2161016392995183e-02  1.6095208001475167e-02  1.9916890266222287e-02  2.3587581960548620e-02  2.7064061011737046e-02  3.0299106795479064e-02  3.3242884363076722e-02  3.5844873483743440e-02  3.8056188248399674e-02  3.9832090109216248e-02  4.1134473123441366e-02  4.1934097557209088e-02  4.2212367483339425e-02  4.1962487909605051e-02  4.1189893481145559e-02  3.9911908305920514e-02  3.8156668144736977e-02  3.5961404808110789e-02  3.3370251158892875e-02  3.0431767763829661e-02  2.7196414807048666e-02  2.3714193333382792e-02  2.0032658475581160e-02  1.6195466477676165e-02  1.2241561370338704e-02  8.2050417672736489e-03  4.1156798762284818e-03  0.0000000000000000e+00  0.0000000000000000e+00  3.6488569824497498e-03  7.2772041556912592e-03  1.0861540899278981e-02  1.4375579225063226e-02  1.7789253909703158e-02  2.1068211347354929e-02  2.4173866519536246e-02  2.7064061011737008e-02  2.9694294524754593e-02  3.2019443662550023e-02  3.3995830674075772e-02  3.5583466427081586e-02  3.6748270217448642e-02  3.7464066512549125e-02  3.7714175943044492e-02  3.7492453326813377e-02  3.6803675841386170e-02  3.5663244667505534e-02  3.4096227434732208e-02  3.2135830111927215e-02  2.9821439386032208e-02  2.7196414807048687e-02  2.4305830309233081e-02  2.1194365304688916e-02  1.7904526586440046e-02  1.4475345941152646e-02  1.0941648506981833e-02  7.3339286048684903e-03  3.6788087854670208e-03  0.0000000000000000e+00  0.0000000000000000e+00  3.1797687965503837e-03  6.3417793108732383e-03  9.4655299206603139e-03  1.2528104270248487e-02  1.5503306425139229e-02  1.8361211626244208e-02  2.1068211347354919e-02  2.3587581960548585e-02  2.5880553478391261e-02  2.7907803643077836e-02  2.9631258034954894e-02  3.1016043326950831e-02  3.2032421809998296e-02  3.2657532992852470e-02  3.2876782932928929e-02  3.2684752722645358e-02  3.2085541302882790e-02  3.1092510168804221e-02  2.9727453292342096e-02  2.8019269049860063e-02  2.6002256691893905e-02  2.3714193333382799e-02  2.1194365304688940e-02  1.8481728360680141e-02  1.5613354855708502e-02  1.2623294436848826e-02  9.5419314482207505e-03  6.3958715359783988e-03  3.2083369649015584e-03  0.0000000000000000e+00  0.0000000000000000e+00  2.6846258444959653e-03  5.3543670279374679e-03  7.9918832988823980e-03  1.0577812866216766e-02  1.3090039055093941e-02  1.5503306425139208e-02  1.7789253909703130e-02  1.9916890266222242e-02  2.1853492277003301e-02  2.3565862842795153e-02  2.5021848432443462e-02  2.6191986987599242e-02  2.7051141263674569e-02  2.7579970524667100e-02  2.7766105932494779e-02  2.7604920834490409e-02  2.7099823994194212e-02  2.6262047986063190e-02  2.5109952034020781e-02  2.3667903740255382e-02  2.1964842843202749e-02  2.0032658475581180e-02  1.7904526586440064e-02  1.5613354855708510e-02  1.3190468683317165e-02  1.0664645256982587e-02  8.0615661443886426e-03  5.4037161397848784e-03  2.7107116298295312e-03  0.0000000000000000e+00  0.0000000000000000e+00  2.1692304698585968e-03  4.3265479418712980e-03  6.4578966177205686e-03  8.5476100485368505e-03  1.0577812866216764e-02  1.2528104270248469e-02  1.4375579225063200e-02  1.6095208001475132e-02  1.7660558200846586e-02  1.9044808453807141e-02  2.0221972606577276e-02  2.1168230309533412e-02  2.1863246868264890e-02  2.2291363482362134e-02  2.2442548949450976e-02  2.2313024723535843e-02  2.1905504913756750e-02  2.1229028458942867e-02  2.0298398726018598e-02  1.9133282298430157e-02  1.7757050038744095e-02  1.6195466477676185e-02  1.447534594115266