<?xml version="1.0"?>
<VTKFile type="UnstructuredGrid"  version="0.1"  >
<UnstructuredGrid>
<Piece  NumberOfPoints="101" NumberOfCells="100">
<Points>
<DataArray  type="Float64"  NumberOfComponents="3"  format="ascii">0 0 0  0.1 0 0  0.2 0 0  0.3 0 0  0.4 0 0  0.5 0 0  0.6 0 0  0.7 0 0  0.8 0 0  0.9 0 0  1 0 0  1.1 0 0  1.2 0 0  1.3 0 0  1.4 0 0  1.5 0 0  1.6 0 0  1.7 0 0  1.8 0 0  1.9 0 0  2 0 0  2.1 0 0  2.2 0 0  2.3 0 0  2.4 0 0  2.5 0 0  2.6 0 0  2.7 0 0  2.8 0 0  2.9 0 0  3 0 0  3.1 0 0  3.2 0 0  3.3 0 0  3.4 0 0  3.5 0 0  3.6 0 0  3.7 0 0  3.8 0 0  3.9 0 0  4 0 0  4.1 0 0  4.2 0 0  4.3 0 0  4.4 0 0  4.5 0 0  4.6 0 0  4.7 0 0  4.8 0 0  4.9 0 0  5 0 0  5.1 0 0  5.2 0 0  5.3 0 0  5.4 0 0  5.5 0 0  5.6 0 0  5.7 0 0  5.8 0 0  5.9 0 0  6 0 0  6.1 0 0  6.2 0 0  6.3 0 0  6.4 0 0  6.5 0 0  6.6 0 0  6.7 0 0  6.8 0 0  6.9 0 0  7 0 0  7.1 0 0  7.2 0 0  7.3 0 0  7.4 0 0  7.5 0 0  7.6 0 0  7.7 0 0  7.8 0 0  7.9 0 0  8 0 0  8.1 0 0  8.199999999999999 0 0  8.300000000000001 0 0  8.4 0 0  8.5 0 0  8.6 0 0  8.699999999999999 0 0  8.800000000000001 0 0  8.9 0 0  9 0 0  9.1 0 0  9.199999999999999 0 0  9.300000000000001 0 0  9.4 0 0  9.5 0 0  9.6 0 0  9.699999999999999 0 0  9.800000000000001 0 0  9.9 0 0  10 0 0  </DataArray>
</Points>
<Cells>
<DataArray  type="UInt32"  Name="connectivity"  format="ascii">0 1  1 2  2 3  3 4  4 5  5 6  6 7  7 8  8 9  9 10  10 11  11 12  12 13  13 14  14 15  15 16  16 17  17 18  18 19  19 20  20 21  21 22  22 23  23 24  24 25  25 26  26 27  27 28  28 29  29 30  30 31  31 32  32 33  33 34  34 35  35 36  36 37  37 38  38 39  39 40  40 41  41 42  42 43  43 44  44 45  45 46  46 47  47 48  48 49  49 50  50 51  51 52  52 53  53 54  54 55  55 56  56 57  57 58  58 59  59 60  60 61  61 62  62 63  63 64  64 65  65 66  66 67  67 68  68 69  69 70  70 71  71 72  72 73  73 74  74 75  75 76  76 77  77 78  78 79  79 80  80 81  81 82  82 83  83 84  84 85  85 86  86 87  87 88  88 89  89 90  90 91  91 92  92 93  93 94  94 95  95 96  96 97  97 98  98 99  99 100  </DataArray>
<DataArray  type="UInt32"  Name="offsets"  format="ascii">2 4 6 8 10 12 14 16 18 20 22 24 26 28 30 32 34 36 38 40 42 44 46 48 50 52 54 56 58 60 62 64 66 68 70 72 74 76 78 80 82 84 86 88 90 92 94 96 98 100 102 104 106 108 110 112 114 116 118 120 122 124 126 128 130 132 134 136 138 140 142 144 146 148 150 152 154 156 158 160 162 164 166 168 170 172 174 176 178 180 182 184 186 188 190 192 194 196 198 200 </DataArray>
<DataArray  type="UInt8"  Name="types"  format="ascii">3 3 3 3 3 3 3 3 3 3 3 3 3 3 3 3 3 3 3 3 3 3 3 3 3 3 3 3 3 3 3 3 3 3 3 3 3 3 3 3 3 3 3 3 3 3 3 3 3 3 3 3 3 3 3 3 3 3 3 3 3 3 3 3 3 3 3 3 3 3 3 3 3 3 3 3 3 3 3 3 3 3 3 3 3 3 3 3 3 3 3 3 3 3 3 3 3 3 3 3 </DataArray>
</Cells>
<PointData  Scalars="f_628457"> 
<DataArray  type="Float64"  Name="f_628457"  format="ascii">1.0000000000000000e+00  1.2133872951851297e+00  1.2748241046685471e+00  1.2885776610503821e+00  1.2769495740354677e+00  1.2502868767597648e+00  1.2144427531446222e+00  1.1730650303856769e+00  1.1285549540798328e+00  1.0825446390348703e+00  1.0361630478482691e+00  9.9019628803005511e-01  9.4518996236193753e-01  9.0151743802802409e-01  8.5942694325397528e-01  8.1907492369062218e-01  7.8055016058024462e-01  7.4389149485215889e-01  7.0910101838863149e-01  6.7615398738665400e-01  6.4500632576446670e-01  6.1560033217348886e-01  5.8786903258156298e-01  5.6173950199803735e-01  5.3713539557727963e-01  5.1397886963930939e-01  4.9219202970801640e-01  4.7169801062003897e-01  4.5242176982176890e-01  4.3429065689916602e-01  4.1723480860672202e-01  4.0118740806746067e-01  3.8608483860794762e-01  3.7186675629100385e-01  3.5847610018749404e-01  3.4585905546981455e-01  3.3396498127513080e-01  3.2274631279528554e-01  3.1215844506446994e-01  3.0215960432880229e-01  2.9271071161135315e-01  2.8377524206743421e-01  2.7531908290752849e-01  2.6731039200911422e-01  2.5971945881210695e-01  2.5251856867045536e-01  2.4568187149432805e-01  2.3918525524709180e-01  2.3300622464578929e-01  2.2712378524249810e-01  2.2151833292819589e-01  2.1617154879358100e-01  2.1106629919701314e-01  2.0618654082368018e-01  2.0151723046844680e-01  1.9704423923446021e-01  1.9275427080787652e-01  1.8863478344388596e-01  1.8467391527875665e-01  1.8086041256538621e-01  1.7718356041457148e-01  1.7363311560978853e-01  1.7019924104877543e-01  1.6687244134979076e-01  1.6364349914333126e-01  1.6050341155064293e-01  1.5744332632789262e-01  1.5445447712875809e-01  1.5152811730780696e-01  1.4865545165173952e-01  1.4582756538470315e-01  1.4303534974674717e-01  1.4026942339033555e-01  1.3752004877785581e-01  1.3477704269237809e-01  1.3202967989355233e-01  1.2926658885941558e-01  1.2647563845182008e-01  1.2364381422686954e-01  1.2075708298068769e-01  1.1780024397340254e-01  1.1475676510857755e-01  1.1160860215941606e-01  1.0833599892462296e-01  1.0491726596328371e-01  1.0132853529666511e-01  9.7543488172283616e-02  9.3533052658370877e-02  8.9265067471035547e-02  8.4703908027549651e-02  7.9810070262336150e-02  7.4539707231893085e-02  6.8844112964895232e-02  6.2669147377203013e-02  5.5954595360805867e-02  4.8633452362270554e-02  4.0631127880508329e-02  3.1864557324938765e-02  2.2241211571524658e-02  1.1657992322391538e-02  0.0000000000000000e+00  </DataArray> 
</PointData> 
</Piece>
</UnstructuredGrid>
</VTKFile>