<?xml version="1.0"?>
<VTKFile type="UnstructuredGrid"  version="0.1"  >
<UnstructuredGrid>
<Piece  NumberOfPoints="101" NumberOfCells="100">
<Points>
<DataArray  type="Float64"  NumberOfComponents="3"  format="ascii">0 0 0  0.1 0 0  0.2 0 0  0.3 0 0  0.4 0 0  0.5 0 0  0.6 0 0  0.7 0 0  0.8 0 0  0.9 0 0  1 0 0  1.1 0 0  1.2 0 0  1.3 0 0  1.4 0 0  1.5 0 0  1.6 0 0  1.7 0 0  1.8 0 0  1.9 0 0  2 0 0  2.1 0 0  2.2 0 0  2.3 0 0  2.4 0 0  2.5 0 0  2.6 0 0  2.7 0 0  2.8 0 0  2.9 0 0  3 0 0  3.1 0 0  3.2 0 0  3.3 0 0  3.4 0 0  3.5 0 0  3.6 0 0  3.7 0 0  3.8 0 0  3.9 0 0  4 0 0  4.1 0 0  4.2 0 0  4.3 0 0  4.4 0 0  4.5 0 0  4.6 0 0  4.7 0 0  4.8 0 0  4.9 0 0  5 0 0  5.1 0 0  5.2 0 0  5.3 0 0  5.4 0 0  5.5 0 0  5.6 0 0  5.7 0 0  5.8 0 0  5.9 0 0  6 0 0  6.1 0 0  6.2 0 0  6.3 0 0  6.4 0 0  6.5 0 0  6.6 0 0  6.7 0 0  6.8 0 0  6.9 0 0  7 0 0  7.1 0 0  7.2 0 0  7.3 0 0  7.4 0 0  7.5 0 0  7.6 0 0  7.7 0 0  7.8 0 0  7.9 0 0  8 0 0  8.1 0 0  8.199999999999999 0 0  8.300000000000001 0 0  8.4 0 0  8.5 0 0  8.6 0 0  8.699999999999999 0 0  8.800000000000001 0 0  8.9 0 0  9 0 0  9.1 0 0  9.199999999999999 0 0  9.300000000000001 0 0  9.4 0 0  9.5 0 0  9.6 0 0  9.699999999999999 0 0  9.800000000000001 0 0  9.9 0 0  10 0 0  </DataArray>
</Points>
<Cells>
<DataArray  type="UInt32"  Name="connectivity"  format="ascii">0 1  1 2  2 3  3 4  4 5  5 6  6 7  7 8  8 9  9 10  10 11  11 12  12 13  13 14  14 15  15 16  16 17  17 18  18 19  19 20  20 21  21 22  22 23  23 24  24 25  25 26  26 27  27 28  28 29  29 30  30 31  31 32  32 33  33 34  34 35  35 36  36 37  37 38  38 39  39 40  40 41  41 42  42 43  43 44  44 45  45 46  46 47  47 48  48 49  49 50  50 51  51 52  52 53  53 54  54 55  55 56  56 57  57 58  58 59  59 60  60 61  61 62  62 63  63 64  64 65  65 66  66 67  67 68  68 69  69 70  70 71  71 72  72 73  73 74  74 75  75 76  76 77  77 78  78 79  79 80  80 81  81 82  82 83  83 84  84 85  85 86  86 87  87 88  88 89  89 90  90 91  91 92  92 93  93 94  94 95  95 96  96 97  97 98  98 99  99 100  </DataArray>
<DataArray  type="UInt32"  Name="offsets"  format="ascii">2 4 6 8 10 12 14 16 18 20 22 24 26 28 30 32 34 36 38 40 42 44 46 48 50 52 54 56 58 60 62 64 66 68 70 72 74 76 78 80 82 84 86 88 90 92 94 96 98 100 102 104 106 108 110 112 114 116 118 120 122 124 126 128 130 132 134 136 138 140 142 144 146 148 150 152 154 156 158 160 162 164 166 168 170 172 174 176 178 180 182 184 186 188 190 192 194 196 198 200 </DataArray>
<DataArray  type="UInt8"  Name="types"  format="ascii">3 3 3 3 3 3 3 3 3 3 3 3 3 3 3 3 3 3 3 3 3 3 3 3 3 3 3 3 3 3 3 3 3 3 3 3 3 3 3 3 3 3 3 3 3 3 3 3 3 3 3 3 3 3 3 3 3 3 3 3 3 3 3 3 3 3 3 3 3 3 3 3 3 3 3 3 3 3 3 3 3 3 3 3 3 3 3 3 3 3 3 3 3 3 3 3 3 3 3 3 </DataArray>
</Cells>
<PointData  Scalars="f_4687"> 
<DataArray  type="Float64"  Name="f_4687"  format="ascii">1.0000000000000000e+00  -1.6368854989067194e-01  8.3531249619978309e-01  1.9887027177189569e+00  3.2844506631862953e+00  4.4073095414204433e+00  4.7751294915931615e+00  3.6485138516412641e+00  7.0177125307632682e-01  -2.2688095793024705e+00  2.4624705599957530e+00  8.6581924646818131e-01  8.2725477348429477e-01  7.6743601292097052e-01  7.1341944533075896e-01  6.6610209268487985e-01  6.2457386145703231e-01  5.8789161347922769e-01  5.5526941582712663e-01  5.2607331801093715e-01  4.9979215161053814e-01  4.7601076153367539e-01  4.5438895777817356e-01  4.3464548651235918e-01  4.1654585428356627e-01  3.9989301975302305e-01  3.8452021245222862e-01  3.7028533852475082e-01  3.5706658113217399e-01  3.4475890900271378e-01  3.3327128205813278e-01  3.2252439712842407e-01  3.1244885583572801e-01  3.0298366523075554e-01  2.9407500276000748e-01  2.8567519275618014e-01  2.7774185336373058e-01  2.7023718168538352e-01  2.6312735171038076e-01  2.5638200479865625e-01  2.4997381653669862e-01  2.4387812693610905e-01  2.3807262342557226e-01  2.3253706804810031e-01  2.2725306183572133e-01  2.2220384058228090e-01  2.1737409723942458e-01  2.1274982697304101e-01  2.0831819157746892e-01  2.0406740048364863e-01  1.9998660603934293e-01  1.9606581110355184e-01  1.9229578729828697e-01  1.8866800251081878e-01  1.8517455644782302e-01  1.8180812321709566e-01  1.7856190005875067e-01  1.7542956147097882e-01  1.7240521807948714e-01  1.6948337968789579e-01  1.6665892202126834e-01  1.6392705673873365e-01  1.6128330434557103e-01  1.5872346968157899e-01  1.5624361970213871e-01  1.5384006330195094e-01  1.5150933295949620e-01  1.4924816800304055e-01  1.4705349931620215e-01  1.4492243531176296e-01  1.4285224900455640e-01  1.4084036600420022e-01  1.3888435321974352e-01  1.3698190800997012e-01  1.3513084740663686e-01  1.3332909685231112e-01  1.3157467757791586e-01  1.2986569121130759e-01  1.2820029931360100e-01  1.2657669404577221e-01  1.2499305367770101e-01  1.2344747250675352e-01  1.2193784786066127e-01  1.2046169540790048e-01  1.1901584498484889e-01  1.1759593759763685e-01  1.1619559193027182e-01  1.1480502195655069e-01  1.1340874356082989e-01  1.1198177013731396e-01  1.1048330334262563e-01  1.0884627374105703e-01  1.0696000895513759e-01  1.0464152676900670e-01  1.0158800990081872e-01  9.7298163420858549e-02  9.0942141526088455e-02  8.1146508792824090e-02  6.5638897930876183e-02  4.0661086691977544e-02  0.0000000000000000e+00  </DataArray> 
</PointData> 
</Piece>
</UnstructuredGrid>
</VTKFile>