<?xml version="1.0"?>
<VTKFile type="UnstructuredGrid"  version="0.1"  >
<UnstructuredGrid>
<Piece  NumberOfPoints="31" NumberOfCells="30">
<Points>
<DataArray  type="Float64"  NumberOfComponents="3"  format="ascii">0 0 0  0.3333333333333333 0 0  0.6666666666666666 0 0  1 0 0  1.333333333333333 0 0  1.666666666666667 0 0  2 0 0  2.333333333333333 0 0  2.666666666666667 0 0  3 0 0  3.333333333333333 0 0  3.666666666666667 0 0  4 0 0  4.333333333333333 0 0  4.666666666666667 0 0  5 0 0  5.333333333333333 0 0  5.666666666666667 0 0  6 0 0  6.333333333333333 0 0  6.666666666666667 0 0  7 0 0  7.333333333333333 0 0  7.666666666666667 0 0  8 0 0  8.333333333333334 0 0  8.666666666666666 0 0  9 0 0  9.333333333333334 0 0  9.666666666666666 0 0  10 0 0  </DataArray>
</Points>
<Cells>
<DataArray  type="UInt32"  Name="connectivity"  format="ascii">0 1  1 2  2 3  3 4  4 5  5 6  6 7  7 8  8 9  9 10  10 11  11 12  12 13  13 14  14 15  15 16  16 17  17 18  18 19  19 20  20 21  21 22  22 23  23 24  24 25  25 26  26 27  27 28  28 29  29 30  </DataArray>
<DataArray  type="UInt32"  Name="offsets"  format="ascii">2 4 6 8 10 12 14 16 18 20 22 24 26 28 30 32 34 36 38 40 42 44 46 48 50 52 54 56 58 60 </DataArray>
<DataArray  type="UInt8"  Name="types"  format="ascii">3 3 3 3 3 3 3 3 3 3 3 3 3 3 3 3 3 3 3 3 3 3 3 3 3 3 3 3 3 3 </DataArray>
</Cells>
<PointData  Scalars="f_26824"> 
<DataArray  type="Float64"  Name="f_26824"  format="ascii">1.0000000000000000e+00  1.2903937749591496e+00  1.1901764150668297e+00  1.0379109225835905e+00  8.8814022115139535e-01  7.5611324260253476e-01  6.4482524841365552e-01  5.5297301905716045e-01  4.7788983365813487e-01  4.1670785714093239e-01  3.6680507716175237e-01  3.2594680551618799e-01  2.9229689426191535e-01  2.6437720566361517e-01  2.4101093267907009e-01  2.2126539748846372e-01  2.0440047726602692e-01  1.8982431144287182e-01  1.7705585552965297e-01  1.6569290316001020e-01  1.5538376148486266e-01  1.4580049653096919e-01  1.3661136899906604e-01  1.2744962315463465e-01  1.1787505263987637e-01  1.0732361096129402e-01  9.5038580726961183e-02  7.9974210409133481e-02  6.0658905250967989e-02  3.4999491858071642e-02  0.0000000000000000e+00  </DataArray> 
</PointData> 
</Piece>
</UnstructuredGrid>
</VTKFile>