<?xml version="1.0"?>
<VTKFile type="UnstructuredGrid"  version="0.1"  >
<UnstructuredGrid>
<Piece  NumberOfPoints="21" NumberOfCells="20">
<Points>
<DataArray  type="Float64"  NumberOfComponents="3"  format="ascii">0 0 0  0.05 0 0  0.1 0 0  0.15 0 0  0.2 0 0  0.25 0 0  0.3 0 0  0.35 0 0  0.4 0 0  0.45 0 0  0.5 0 0  0.55 0 0  0.6 0 0  0.65 0 0  0.7 0 0  0.75 0 0  0.8 0 0  0.85 0 0  0.9 0 0  0.95 0 0  1 0 0  </DataArray>
</Points>
<Cells>
<DataArray  type="UInt32"  Name="connectivity"  format="ascii">0 1  1 2  2 3  3 4  4 5  5 6  6 7  7 8  8 9  9 10  10 11  11 12  12 13  13 14  14 15  15 16  16 17  17 18  18 19  19 20  </DataArray>
<DataArray  type="UInt32"  Name="offsets"  format="ascii">2 4 6 8 10 12 14 16 18 20 22 24 26 28 30 32 34 36 38 40 </DataArray>
<DataArray  type="UInt8"  Name="types"  format="ascii">3 3 3 3 3 3 3 3 3 3 3 3 3 3 3 3 3 3 3 3 </DataArray>
</Cells>
<PointData  Scalars="f_857"> 
<DataArray  type="Float64"  Name="f_857"  format="ascii">0.0000000000000000e+00  -2.8141987369470812e-02  -5.8780332889875345e-02  -9.1905696634301329e-02  -1.2750258964796865e-01  -1.6554948931898872e-01  -2.0601899888689723e-01  -2.4887804912041481e-01  -2.9408813969237435e-01  -3.4160561731861955e-01  -3.9138198731639451e-01  -4.4336425488268127e-01  -4.9749529209927490e-01  -5.5371422644296209e-01  -6.1195684641847925e-01  -6.7215601984008178e-01  -7.3424212026424807e-01  -7.9814345711967938e-01  -8.6378670518842249e-01  -9.3109732925962108e-01  -1.0000000000000000e+00  </DataArray> 
</PointData> 
</Piece>
</UnstructuredGrid>
</VTKFile>