<?xml version="1.0"?>
<VTKFile type="UnstructuredGrid"  version="0.1"  >
<UnstructuredGrid>
<Piece  NumberOfPoints="32657" NumberOfCells="64508">
<Points>
<DataArray  type="Float64"  NumberOfComponents="3"  format="ascii">1.231479122813215 -0.4326237921249266 0  1.26076844469456 -0.5033344702435814 0  1.331479122813215 -0.5326237921249266 0  1.40218980093187 -0.5033344702435814 0  1.431479122813215 -0.4326237921249266 0  1.40218980093187 -0.3619131140062719 0  1.331479122813215 -0.3326237921249267 0  1.26076844469456 -0.3619131140062719 0  0.7228993532094621 -1.132623792124926 0  0.7521886750908073 -1.203334470243581 0  0.8228993532094621 -1.232623792124927 0  0.8936100313281168 -1.203334470243581 0  0.922899353209462 -1.132623792124926 0  0.8936100313281168 -1.061913114006272 0  0.8228993532094621 -1.032623792124926 0  0.7521886750908073 -1.061913114006272 0  -0.1000000000000003 -1.4 0  -0.07071067811865503 -1.470710678118655 0  -2.755455298081544e-16 -1.5 0  0.07071067811865449 -1.470710678118655 0  0.09999999999999974 -1.4 0  0.0707106781186545 -1.329289321881345 0  -2.510525938252074e-16 -1.3 0  -0.07071067811865502 -1.329289321881345 0  -0.9228993532094625 -1.132623792124926 0  -0.8936100313281172 -1.203334470243581 0  -0.8228993532094625 -1.232623792124926 0  -0.7521886750908078 -1.203334470243581 0  -0.7228993532094625 -1.132623792124926 0  -0.7521886750908078 -1.061913114006271 0  -0.8228993532094625 -1.032623792124926 0  -0.8936100313281172 -1.061913114006271 0  -1.431479122813215 -0.4326237921249256 0  -1.40218980093187 -0.5033344702435804 0  -1.331479122813215 -0.5326237921249256 0  -1.26076844469456 -0.5033344702435804 0  -1.231479122813215 -0.4326237921249256 0  -1.26076844469456 -0.3619131140062709 0  -1.331479122813215 -0.3326237921249257 0  -1.40218980093187 -0.3619131140062709 0  -1.431479122813215 0.4326237921249265 0  -1.40218980093187 0.3619131140062717 0  -1.331479122813215 0.3326237921249264 0  -1.26076844469456 0.3619131140062717 0  -1.231479122813215 0.4326237921249265 0  -1.26076844469456 0.5033344702435812 0  -1.331479122813215 0.5326237921249265 0  -1.40218980093187 0.5033344702435812 0  -0.9228993532094621 1.132623792124926 0  -0.8936100313281169 1.061913114006271 0  -0.8228993532094622 1.032623792124926 0  -0.7521886750908074 1.061913114006271 0  -0.7228993532094622 1.132623792124926 0  -0.7521886750908074 1.203334470243581 0  -0.8228993532094622 1.232623792124926 0  -0.8936100313281169 1.203334470243581 0  -0.09999999999999992 1.4 0  -0.07071067811865468 1.329289321881345 0  6.735557395310443e-17 1.3 0  0.07071067811865483 1.329289321881345 0  0.1000000000000001 1.4 0  0.07071067811865485 1.470710678118655 0  9.184850993605148e-17 1.5 0  -0.07071067811865467 1.470710678118655 0  0.7228993532094625 1.132623792124926 0  0.7521886750908078 1.061913114006271 0  0.8228993532094625 1.032623792124926 0  0.8936100313281172 1.061913114006271 0  0.9228993532094625 1.132623792124926 0  0.8936100313281172 1.203334470243581 0  0.8228993532094625 1.232623792124926 0  0.7521886750908078 1.203334470243581 0  1.231479122813215 0.4326237921249264 0  1.26076844469456 0.3619131140062716 0  1.331479122813215 0.3326237921249263 0  1.40218980093187 0.3619131140062716 0  1.431479122813215 0.4326237921249264 0  1.40218980093187 0.5033344702435811 0  1.331479122813215 0.5326237921249264 0  1.26076844469456 0.5033344702435811 0  0.547213595499958 -0.4702282018339786 0  0.5765029173813032 -0.5409388799526333 0  0.6472135954999579 -0.5702282018339786 0  0.7179242736186127 -0.5409388799526333 0  0.7472135954999579 -0.4702282018339786 0  0.7179242736186127 -0.3995175237153239 0  0.6472135954999579 -0.3702282018339786 0  0.5765029173813032 -0.3995175237153238 0  0.1472135954999578 -0.760845213036123 0  0.176502917381303 -0.8315558911547777 0  0.2472135954999578 -0.8608452130361229 0  0.3179242736186125 -0.8315558911547777 0  0.3472135954999578 -0.760845213036123 0  0.3179242736186126 -0.6901345349174682 0  0.2472135954999578 -0.660845213036123 0  0.1765029173813031 -0.6901345349174682 0  -0.3472135954999581 -0.7608452130361228 0  -0.3179242736186128 -0.8315558911547776 0  -0.2472135954999581 -0.8608452130361228 0  -0.1765029173813033 -0.8315558911547776 0  -0.147213595499958 -0.7608452130361228 0  -0.1765029173813033 -0.6901345349174681 0  -0.2472135954999581 -0.6608452130361229 0  -0.3179242736186128 -0.6901345349174681 0  -0.747213595499958 -0.4702282018339785 0  -0.7179242736186128 -0.5409388799526332 0  -0.647213595499958 -0.5702282018339785 0  -0.5765029173813033 -0.5409388799526332 0  -0.5472135954999581 -0.4702282018339785 0  -0.5765029173813033 -0.3995175237153237 0  -0.647213595499958 -0.3702282018339784 0  -0.7179242736186128 -0.3995175237153237 0  -0.9 1.102182119232618e-16 0  -0.8707106781186548 -0.07071067811865465 0  -0.8 -0.09999999999999991 0  -0.7292893218813453 -0.07071067811865467 0  -0.7000000000000001 9.797174393178826e-17 0  -0.7292893218813453 0.07071067811865485 0  -0.8 0.1000000000000001 0  -0.8707106781186548 0.07071067811865486 0  -0.7472135954999579 0.4702282018339786 0  -0.7179242736186127 0.3995175237153239 0  -0.6472135954999579 0.3702282018339786 0  -0.5765029173813032 0.3995175237153238 0  -0.547213595499958 0.4702282018339786 0  -0.5765029173813032 0.5409388799526333 0  -0.6472135954999579 0.5702282018339786 0  -0.7179242736186127 0.5409388799526333 0  -0.3472135954999579 0.760845213036123 0  -0.3179242736186126 0.6901345349174682 0  -0.2472135954999579 0.660845213036123 0  -0.1765029173813031 0.6901345349174682 0  -0.1472135954999579 0.760845213036123 0  -0.1765029173813031 0.8315558911547777 0  -0.2472135954999579 0.8608452130361229 0  -0.3179242736186126 0.8315558911547777 0  0.147213595499958 0.7608452130361228 0  0.1765029173813032 0.6901345349174681 0  0.2472135954999579 0.6608452130361229 0  0.3179242736186128 0.6901345349174681 0  0.347213595499958 0.7608452130361228 0  0.3179242736186128 0.8315558911547776 0  0.247213595499958 0.8608452130361228 0  0.1765029173813032 0.8315558911547776 0  0.5472135954999581 0.4702282018339785 0  0.5765029173813033 0.3995175237153238 0  0.647213595499958 0.3702282018339785 0  0.7179242736186128 0.3995175237153237 0  0.747213595499958 0.4702282018339785 0  0.7179242736186128 0.5409388799526332 0  0.647213595499958 0.5702282018339785 0  0.5765029173813033 0.5409388799526332 0  0.7000000000000001 1.224646799147353e-17 0  0.7292893218813453 -0.07071067811865475 0  0.8 -0.1 0  0.8707106781186548 -0.07071067811865477 0  0.9 0 0  0.8707106781186548 0.07071067811865475 0  0.8 0.1 0  0.7292893218813453 0.07071067811865477 0  -1.199370682854618 0.03885826950402724 0  -1.199370682854618 -0.0388582695040264 0  -1.194340105399937 -0.1164118234255776 0  -1.184300050480669 -0.1934771057037117 0  -1.169292629576311 -0.2697308777624757 0  -1.149380789025584 -0.3448533047817937 0  -1.124648046007612 -0.4185292971958582 0  -1.095198138241848 -0.4904498322882673 0  -1.061154588876028 -0.5603132503406887 0  -1.022660188387163 -0.6278265198985556 0  -0.9798763956686531 -0.6927064668468234 0  -0.9329826608155793 -0.7546809621406131 0  -0.8821756724486408 -0.8134900632090035 0  -0.827668532733725 -0.8688871042445058 0  -0.7696898635573679 -0.9206397308051832 0  -0.7084828476071071 -0.968530874389931 0  -0.6443042083787804 -1.012359662899206 0  -0.5774231333889668 -1.051942263162417 0  -0.508120145108988 -1.087112651998136 0  -0.4366859243561848 -1.117723312573011 0  -0.3634200910775406 -1.143645853138633 0  -0.2886299476395041 -1.164771545551151 0  -0.2126291898950681 -1.181011781314889 0  -0.1357365914343408 -1.192298443237173 0  -0.05827466653733757 -1.198584191135509 0  0.01943168256300105 -1.199842660398759 0  0.09705652843368533 -1.196068572569483 0  0.1742742854945876 -1.187277757483627 0  0.2507610756375294 -1.173507086874685 0  0.3261960866836108 -1.154814319720836 0  0.4002629179809841 -1.131277859983721 0  0.4726509074991451 -1.102996427754974 0  0.5430564348534461 -1.070088645189857 0  0.611184194794515 -1.032692538964711 0  0.6767484358210873 -0.9909649613451081 0  0.7394741587211131 -0.9450809322929449 0  0.7990982700140177 -0.8952329053718949 0  0.8553706854561947 -0.8416299605302793 0  0.908055378981234 -0.7844969271471034 0  0.9569313726752646 -0.7240734410195099 0  1.001793663635125 -0.6606129392469645 0  1.042454083821782 -0.5943815972279844 0  1.078742089302474 -0.5256572122280191 0  1.110505475571245 -0.4547280382011684 0  1.137611015947524 -0.3818915767529329 0  1.159945020375133 -0.3074533293150872 0  1.177413812277887 -0.2317255157665048 0  1.18994412147171 -0.155025764874488 0  1.197483391485254 -0.0776757820493232 0  1.2 0 0  1.197483391485254 0.07767578204932289 0  1.18994412147171 0.1550257648744877 0  1.177413812277887 0.2317255157665055 0  1.159945020375133 0.3074533293150868 0  1.137611015947525 0.3818915767529326 0  1.110505475571245 0.454728038201168 0  1.078742089302474 0.5256572122280188 0  1.042454083821781 0.5943815972279851 0  1.001793663635125 0.6606129392469643 0  0.9569313726752651 0.7240734410195094 0  0.9080553789812342 0.784496927147103 0  0.8553706854561952 0.8416299605302788 0  0.7990982700140173 0.8952329053718953 0  0.7394741587211127 0.9450809322929452 0  0.676748435821088 0.9909649613451076 0  0.6111841947945156 1.03269253896471 0  0.5430564348534466 1.070088645189857 0  0.4726509074991445 1.102996427754975 0  0.4002629179809848 1.131277859983721 0  0.3261960866836116 1.154814319720836 0  0.25076107563753 1.173507086874685 0  0.1742742854945885 1.187277757483627 0  0.09705652843368508 1.196068572569483 0  0.01943168256300188 1.199842660398759 0  -0.05827466653733781 1.198584191135509 0  -0.1357365914343414 1.192298443237173 0  -0.212629189895067 1.181011781314889 0  -0.2886299476395043 1.164771545551151 0  -0.3634200910775409 1.143645853138633 0  -0.4366859243561848 1.117723312573011 0  -0.5081201451089883 1.087112651998136 0  -0.577423133388966 1.051942263162417 0  -0.6443042083787806 1.012359662899205 0  -0.70
[...]
<PointData  Scalars="f_1859"> 
<DataArray  type="Float64"  Name="f_1859"  format="ascii">-1.7417347301308492e-10  -1.2504075728789979e-09  -2.8106199240036257e-09  -3.8559389985064041e-09  -4.0864454978662288e-09  -3.2589550338388183e-09  -1.5798874324378517e-09  -1.6092513681710634e-10  -8.6468459167052075e-10  -2.5070895942215964e-09  -3.7409043071280737e-09  -4.1513288310625817e-09  -3.4153054311896147e-09  -1.9569115719395340e-09  -4.3783357641356164e-10  1.1452878232704827e-10  -2.2798091486803631e-09  -3.5977310537392258e-09  -4.1682692544327305e-09  -3.5764926477414949e-09  -2.2338097449329601e-09  -6.2944181163882248e-10  -7.6221873692503519e-12  -7.5309915896165237e-10  -3.3370121178151928e-09  -3.9932196838693373e-09  -3.7491056556243616e-09  -2.5661171856605335e-09  -9.0444692459376733e-10  8.3125317843440249e-11  -3.9189207681543166e-10  -1.9015191116811141e-09  -4.0824034677588160e-09  -3.8734673130375520e-09  -2.8117790492336202e-09  -1.2184963008912184e-09  -1.7422770658507725e-11  -1.6633599171033324e-10  -1.5433013217810811e-09  -3.1088572199872047e-09  -3.9084570583135195e-09  -3.2268044638696457e-09  -1.6035029854462433e-09  -1.8317663017078823e-10  -1.4647138398233862e-10  -1.3861670467876177e-09  -2.8869903368321394e-09  -3.9916797903111970e-09  -3.3595450777470479e-09  -1.9344204392403156e-09  -4.9093215691679851e-10  -5.8919961476160353e-11  -9.5064997232575549e-10  -2.5632041207105963e-09  -3.7558673629099697e-09  -4.0179931455976781e-09  -2.2510315131748087e-09  -6.2751095483889908e-10  -4.9262624777142398e-11  -6.2286782947043276e-10  -2.2209126581423436e-09  -3.5952275579995068e-09  -4.1403607066960909e-09  -3.7087605182468091e-09  -9.8561856282177792e-10  -8.5885628718851640e-11  -4.7538807413257700e-10  -1.9936634993146926e-09  -3.4027670305216495e-09  -4.0445129136065340e-09  -3.8866888949796419e-09  -2.6693667551573177e-09  -1.3910693882207495e-10  -1.5932491791277309e-10  -1.5547272344944661e-09  -3.1479057783267563e-09  -4.0863123434580333e-09  -3.8894107446107359e-09  -2.8799047703249723e-09  -1.3592465036289507e-09  1.0466624130162362e-07  1.0294101226866866e-07  1.0041099544130139e-07  9.9128690256912373e-08  9.9671787563824929e-08  1.0183618640464909e-07  1.0422982113114863e-07  1.0515011569379549e-07  1.0328339588685260e-07  1.0083602583164552e-07  9.9234915665815116e-08  9.9502592508429293e-08  1.0136453795429850e-07  1.0373658204869259e-07  1.0501281285835589e-07  1.0490462474331978e-07  1.0136645816800719e-07  9.9445709064821889e-08  9.9141223370113868e-08  1.0084595221571182e-07  1.0327186981064932e-07  1.0493410147058277e-07  1.0513839287256514e-07  1.0376837866182577e-07  9.9761795657517678e-08  9.9104499667320530e-08  1.0038152898936929e-07  1.0289170801210153e-07  1.0479441794977350e-07  1.0508130222430564e-07  1.0408659429250368e-07  1.0194049416492128e-07  9.9108141298629167e-08  1.0004944863908892e-07  1.0250259143422661e-07  1.0447443518833885e-07  1.0516208101074296e-07  1.0441240490707056e-07  1.0232857282617618e-07  1.0011366616574758e-07  9.9659684511987952e-08  1.0188789392801569e-07  1.0429008077944856e-07  1.0514341381056763e-07  1.0477179708097066e-07  1.0298271900279031e-07  1.0043799733865736e-07  9.9128184686373910e-08  1.0126238372255097e-07  1.0371330803727092e-07  1.0515718797031925e-07  1.0493300582484550e-07  1.0340052629883853e-07  1.0080845701345159e-07  9.9180457030432725e-08  9.9338491919253868e-08  1.0325485358816645e-07  1.0499579212444400e-07  1.0502290354031053e-07  1.0378813688562006e-07  1.0150945189096282e-07  9.9443256084980593e-08  9.9248592111393521e-08  1.0088125063205917e-07  1.0471660421668272e-07  1.0530088482721959e-07  1.0426660844463152e-07  1.0183999636329642e-07  9.9678159664900993e-08  9.9169952932541524e-08  1.0042032374831062e-07  1.0281196836830653e-07  1.0522367647998172e-07  1.0446264903072873e-07  1.0253250689032749e-07  1.0014977372993750e-07  9.9094546760240852e-08  1.0000307359856716e-07  1.0245436798273688e-07  1.0455542289886576e-07  1.0620307536573221e-08  1.0621539033358069e-08  9.9815494791943876e-09  8.8266525030858935e-09  7.4031417526128343e-09  6.3970021261025817e-09  6.6015976296845923e-09  7.8096340582968251e-09  9.2051154874991362e-09  1.0234112649316849e-08  1.0652005999253392e-08  1.0471660066283106e-08  9.7148846426933582e-09  8.4309298209766207e-09  6.9934008370627179e-09  6.2398904964660460e-09  6.8355873439097752e-09  8.2496418584629976e-09  9.5897977884777019e-09  1.0453531588547837e-08  1.0681856989776311e-08  1.0292715025332760e-08  9.3191558625639585e-09  7.9529079856367273e-09  6.6757044981725485e-09  6.3487558040599276e-09  7.2663837227892678e-09  8.7012083901505684e-09  9.9100548682384483e-09  1.0574982074560930e-08  1.0645947488132570e-08  1.0075471385800418e-08  8.9492544004258603e-09  7.5314313097423264e-09  6.4402859899124037e-09  6.5315289290829976e-09  7.7045497308363458e-09  9.1015691926007993e-09  1.0150545651420426e-08  1.0647049317743628e-08  1.0505638655993153e-08  9.7925723281990798e-09  8.5724770983419169e-09  7.1376327617250217e-09  6.2909599965814995e-09  6.7612551159704517e-09  8.1105619107053301e-09  9.4608554188678472e-09  1.0340185988237239e-08  1.0655515188694023e-08  1.0362259655482596e-08  9.4613789123016691e-09  8.0977467932205496e-09  6.7620770928162732e-09  6.2915254852483475e-09  7.1285516622321102e-09  8.5451167200450601e-09  9.7877816402692975e-09  1.0520845533797204e-08  1.0665617899716280e-08  1.0186212393021143e-08  9.0975920761522842e-09  7.6856999645413931e-09  6.4752920869629624e-09  6.4161020606682166e-09  7.5210310294202451e-09  8.9438232330411493e-09  1.0069484354354269e-08  1.0622316309061690e-08  1.0567512886532328e-08  9.9130245644219829e-09  8.6906851791605299e-09  7.2734998038589809e-09  6.3294407775549428e-09  6.6824519426946064e-09  7.9854185341379303e-09  9.3699263186472221e-09  1.0333019937659654e-08  1.0676949154287939e-08  1.0429282636078125e-08  9.5936049591768165e-09  8.2705305639044232e-09  6.9070565528109897e-09  6.2834685740901154e-09  7.0032238683192002e-09  8.4161382038276775e-09  9.7080652821696100e-09  1.0487541616012065e-08  1.0676167555230651e-08  1.0241465521335885e-08  9.2378415292027104e-09  7.8207740506343922e-09  6.5693360360073519e-09  6.3766202278903840e-09  7.3910663420101031e-09  8.8204322870753536e-09  1.0003589695768389e-08  9.1605093872966924e-08  9.2020753160517380e-08  9.1589015662905589e-08  9.0734078461567896e-08  8.9992844022739718e-08  8.9701647581285408e-08  8.9994319329565946e-08  9.0734296122954216e-08  9.1572452745398344e-08  9.2007352073781564e-08  9.1622058871242032e-08  9.0749714643489789e-08  9.0001729217997267e-08  8.9696076968075023e-08  8.9998444821462868e-08  9.0727499239876302e-08  9.1598497105003220e-08  9.1973388303772502e-08  9.1604044607183132e-08  9.0746147749594540e-08  8.9994177059648773e-08  8.9693887610380977e-08  8.9974703524880633e-08  9.0720915146577362e-08  9.1586689206159715e-08  9.2020772141087916e-08  9.1613563433836715e-08  9.0758420666771683e-08  9.0002344032501268e-08  8.9702331758376273e-08  8.9983913068831203e-08  9.0742835930116137e-08  9.1615969080001969e-08  9.2006072130603064e-08  9.1577395833371090e-08  9.0731118542922481e-08  8.9979038822202792e-08  8.9705667016496899e-08  8.9989892388247960e-08  9.0731033875917797e-08  9.1604648479969127e-08  9.2020432826838998e-08  9.1577603640449728e-08  9.0744675739164223e-08  9.0001516906991133e-08  8.9707294422229610e-08  8.9992341315128214e-08  9.0744742311406978e-08  9.1575763477368221e-08  9.2018449516118732e-08  9.1646434459023431e-08  9.0745010111717339e-08  8.9982757041468852e-08  8.9691509464228569e-08  8.9982232093581536e-08  9.0714934997723339e-08  9.1584102929200153e-08  9.2012786206905647e-08  9.1604195069373676e-08  9.0746700541478473e-08  9.0001082338829027e-08  8.9699328588936066e-08  8.9983896874687686e-08  9.0740570438019260e-08  9.1603483022597219e-08  9.1979792048773726e-08  9.1591672419848336e-08  9.0715377522109937e-08  8.9994410627640757e-08  8.9711904136433157e-08  9.0010197721276027e-08  9.0753994823246354e-08  9.1601077450909760e-08  9.1966065497132374e-08  9.1577549316986880e-08  9.0730672168312999e-08  8.9987979165797503e-08  8.9716904890681684e-08  9.0000393186058458e-08  9.0756968309668390e-08  0.0000000000000000e+00  0.0000000000000000e+00  0.0000000000000000e+00  0.0000000000000000e+00  0.0000000000000000e+00  0.0000000000000000e+00  0.0000000000000000e+00  0.0000000000000000e+00  0.0000000000000000e+00  0.0000000000000000e+00  0.0000000000000000e+00  0.0000000000000000e+00  0.0000000000000000e+00  0.0000000000000000e+00  0.0000000000000000e+00  0.0000000000000000e+00  0.0000000000000000e+00  0.0000000000000000e+00  0.0000000000000000e+00  0.0000000000000000e+00  0.0000000000000000e+00  0.0000000000000000e+00  0.0000000000000000e+00  0.0000000000000000e+00  0.0000000000000000e+00  0.0000000000000000e+00  0.0000000000000000e+00  0.0000000000000000e+00  0.0000000000000000e+00  0.0000000000000000e+00  0.0000000000000000e+00  0.0000000000000000e+00  0.0000000000000000e+00  0.0000000000000000e+00  0.0000000000000000e+00  0.0000000000000000e+00  0.0000000000000000e+00  0.0000000000000000e+00  0.0000000000000000e+00  0.0000000000000000e+00  0.0000000000000000e+00  0.0000000000000000e+00  0.0000000000000000e+00  0.0000000000000000e+00  0.0000000000000000e+00  0.0000000000000000e+00  0.0000000000000000e+00  0.0000000000000000e+00  0.0000000000000000e+00  0.0000000000000000e+00  0.0000000000000000e+00  0.0000000000000000e+00  0.0000000000000000e+00  0.0000000000000000e+00  0.0000000000000000e+00  0.0000000000000000e+00  0.0000000000000000e+00  0.0000000000000000e+00  0.0000000000000000e+00  0.0000000000000000e+00  0.0000000000000000e+00  0.0000000000000000e+00  0.0000000000000000e+00  0.0000000000000000e+00  0.0000000000000000e+00  0.0000000000000000e+00  0.0000000000000000e+00  0.0000000000000000e+00  0.0000000000000000e+00  0.0000000000000000e+00  0.0000000000000000e+00  0.0000000000000000e+00  0.0000000000000000e+00  0.0000000000000000e+00  0.0000000000000000e+00  0.0000000000000000e+00  0.0000000000000000e+00  0.0000000000000000e+00  0.0000000000000000e+00  0.0000000000000000e+00  0.0000000000000000e+00  0.0000000000000000e+00  0.0000000000000000e+00  0.0000000000000000e+00  0.0000000000000000e+00  0.0000000000000000e+00  0.0000000000000000e+00  0.0000000000000000e+00  0.0000000000000000e+00  0.0000000000000000e+00  0.0000000000000000e+00  0.0000000000000000e+00  0.0000000000000000e+00  0.0000000000000000e+00  0.0000000000000000e+00  0.0000000000000000e+00  0.0000000000000000e+00  0.0000000000000000e+00  0.0000000000000000e+00  0.0000000000000000e+00  0.0000000000000000e+00  0.0000000000000000e+00  0.0000000000000000e+00  0.0000000000000000e+00  0.0000000000000000e+00  0.0000000000000000e+00  0.0000000000000000e+00  0.0000000000000000e+00  0.0000000000000000e+00  0.0000000000000000e+00  0.0000000000000000e+00  0.0000000000000000e+00  0.0000000000000000e+00  0.0000000000000000e+00  0.0000000000000000e+00  0.0000000000000000e+00  0.0000000000000000e+00  0.0000000000000000e+00  0.0000000000000000e+00  0.0000000000000000e+00  0.0000000000000000e+00  0.0000000000000000e+00  0.0000000000000000e+00  0.0000000000000000e+00  0.0000000000000000e+00  0.0000000000000000e+00  0.0000000000000000e+00  0.0000000000000000e+00  0.0000000000000000e+00  0.0000000000000000e+00  0.0000000000000000e+00  0.0000000000000000e+00  0.0000000000000000e+00  0.0000000000000000e+00  0.0000000000000000e+00  0.0000000000000000e+00  0.0000000000000000e+00  0.0000000000000000e+00  0.0000000000000000e+00  0.0000000000000000e+00  0.0000000000000000e+00  0.0000000000000000e+00  0.0000000000000000e+00  0.0000000000000000e+00  0.0000000000000000e+00  0.0000000000000000e+00  0.0000000000000000e+00  0.0000000000000000e+00  0.0000000000000000e+00  0.0000000000000000e+00  0.0000000000000000e+00  0.0000000000000000e+00  0.0000000000000000e+00  0.0000000000000000e+00  0.0000000000000000e+00  0.0000000000000000e+00  0.0000000000000000e+00  0.0000000000000000e+00  0.0000000000000000e+00  0.0000000000000000e+00  0.0000000000000000e+00  0.0000000000000000e+00  0.0000000000000000e+00  0.0000000000000000e+00  0.0000000000000000e+00  0.0000000000000000e+00  0.0000000000000000e+00  0.0000000000000000e+00  0.0000000000000000e+00  0.0000000000000000e+00  0.0000000000000000e+00  0.0000000000000000e+00  0.0000000000000000e+00  0.0000000000000000e+00  0.0000000000000000e+00  0.0000000000000000e+00  0.0000000000000000e+00  0.0000000000000000e+00  0.0000000000000000e+00  0.0000000000000000e+00  0.0000000000000000e+00  0.0000000000000000e+00  0.0000000000000000e+00  0.0000000000000000e+00  0.0000000000000000e+00  0.0000000000000000e+00  0.0000000000000000e+00  0.0000000000000000e+00  0.0000000000000000e+00  0.0000000000000000e+00  0.0000000000000000e+00  0.0000000000000000e+00  0.0000000000000000e+00  0.0000000000000000e+00  0.0000000000000000e+00  0.0000000000000000e+00  0.0000000000000000e+00  0.0000000000000000e+00  0.0000000000000000e+00  0.0000000000000000e+00  0.0000000000000000e+00  0.0000000000000000e+00  0.0000000000000000e+00  0.0000000000000000e+00  0.0000000000000000e+00  0.0000000000000000e+00  0.0000000000000000e+00  0.0000000000000000e+00  0.0000000000000000e+00  0.0000000000000000e+00  0.0000000000000000e+00  0.0000000000000000e+00  0.0000000000000000e+00  0.0000000000000000e+00  0.0000000000000000e+00  0.0000000000000000e+00  0.0000000000000000e+00  0.0000000000000000e+00  0.0000000000000000e+00  0.0000000000000000e+00  0.0000000000000000e+00  0.0000000000000000e+00  0.0000000000000000e+00  0.0000000000000000e+00  0.0000000000000000e+00  0.0000000000000000e+00  0.0000000000000000e+00  0.0000000000000000e+00  0.0000000000000000e+00  0.0000000000000000e+00  0.0000000000000000e+00  0.0000000000000000e+00  0.0000000000000000e+00  0.0000000000000000e+00  0.0000000000000000e+00  0.0000000000000000e+00  0.0000000000000000e+00  0.0000000000000000e+00  0.0000000000000000e+00  0.0000000000000000e+00  0.0000000000000000e+00  0.0000000000000000e+00  0.0000000000000000e+00  0.0000000000000000e+00  0.0000000000000000e+00  0.0000000000000000e+00  0.0000000000000000e+00  0.0000000000000000e+00  0.0000000000000000e+00  0.0000000000000000e+00  0.0000000000000000e+00  0.0000000000000000e+00  0.0000000000000000e+00  0.0000000000000000e+00  0.0000000000000000e+00  0.0000000000000000e+00  0.0000000000000000e+00  0.0000000000000000e+00  0.0000000000000000e+00  0.0000000000000000e+00  0.0000000000000000e+00  0.0000000000000000e+00  0.0000000000000000e+00  0.0000000000000000e+00  0.0000000000000000e+00  0.0000000000000000e+00  0.0000000000000000e+00  0.0000000000000000e+00  0.0000000000000000e+00  0.0000000000000000e+00  0.0000000000000000e+00  0.0000000000000000e+00  0.0000000000000000e+00  0.0000000000000000e+00  0.0000000000000000e+00  0.0000000000000000e+00  0.0000000000000000e+00  0.0000000000000000e+00  0.0000000000000000e+00  0.0000000000000000e+00  0.0000000000000000e+00  0.0000000000000000e+00  0.0000000000000000e+00  0.0000000000000000e+00  0.0000000000000000e+00  0.0000000000000000e+00  0.0000000000000000e+00  0.0000000000000000e+00  0.0000000000000000e+00  0.0000000000000000e+00  0.0000000000000000e+00  0.0000000000000000e+00  0.0000000000000000e+00  0.0000000000000000e+00  0.0000000000000000e+00  0.0000000000000000e+00  0.0000000000000000e+00  0.0000000000000000e+00  0.0000000000000000e+00  0.0000000000000000e+00  0.0000000000000000e+00  0.0000000000000000e+00  0.0000000000000000e+00  0.0000000000000000e+00  0.0000000000000000e+00  0.0000000000000000e+00  0.0000000000000000e+00  0.0000000000000000e+00  0.0000000000000000e+00  0.0000000000000000e+00  0.0000000000000000e+00  0.0000000000000000e+00  0.0000000000000000e+00  0.0000000000000000e+00  0.0000000000000000e+00  0.0000000000000000e+00  0.0000000000000000e+00  0.0000000000000000e+00  0.0000000000000000e+00  0.0000000000000000e+00  0.0000000000000000e+00  0.0000000000000000e+00  0.0000000000000000e+00  0.0000000000000000e+00  0.0000000000000000e+00  0.0000000000000000e+00  0.0000000000000000e+00  0.0000000000000000e+00  0.0000000000000000e+00  0.0000000000000000e+00  0.0000000000000000e+00  0.0000000000000000e+00  0.0000000000000000e+00  0.0000000000000000e+00  0.0000000000000000e+00  0.0000000000000000e+00  0.0000000000000000e+00  0.0000000000000000e+00  0.0000000000000000e+00  0.0000000000000000e+00  0.0000000000000000e+00  0.0000000000000000e+00  0.0000000000000000e+00  0.0000000000000000e+00  0.0000000000000000e+00  0.0000000000000000e+00  0.0000000000000000e+00  0.0000000000000000e+00  0.0000000000000000e+00  0.0000000000000000e+00  0.0000000000000000e+00  0.0000000000000000e+00  0.0000000000000000e+00  0.0000000000000000e+00  0.0000000000000000e+00  0.0000000000000000e+00  0.0000000000000000e+00  0.0000000000000000e+00  0.0000000000000000e+00  0.0000000000000000e+00  0.0000000000000000e+00  0.0000000000000000e+00  0.0000000000000000e+00  0.0000000000000000e+00  0.0000000000000000e+00  0.0000000000000000e+00  0.0000000000000000e+00  0.0000000000000000e+00  0.0000000000000000e+00  0.0000000000000000e+00  0.0000000000000000e+00  0.0000000000000000e+00  0.0000000000000000e+00  0.0000000000000000e+00  0.0000000000000000e+00  0.0000000000000000e+00  0.0000000000000000e+00  0.0000000000000000e+00  0.0000000000000000e+00  0.0000000000000000e+00  0.0000000000000000e+00  0.0000000000000000e+00  0.0000000000000000e+00  0.0000000000000000e+00  0.0000000000000000e+00  0.0000000000000000e+00  0.0000000000000000e+00  0.0000000000000000e+00  0.0000000000000000e+00  0.0000000000000000e+00  0.0000000000000000e+00  0.0000000000000000e+00  0.0000000000000000e+00  0.0000000000000000e+00  0.0000000000000000e+00  0.0000000000000000e+00  0.0000000000000000e+00  0.0000000000000000e+00  0.0000000000000000e+00  0.0000000000000000e+00  0.0000000000000000e+00  0.0000000000000000e+00  1.3981755925912325e-12  1.4378986974705502e-12  1.4703965691334405e-12  1.5227774098252855e-12  1.6820648084737991e-12  1.5325151600106975e-12  1.5623302581325351e-12  1.5755334006203178e-12  1.7224129793750209e-12  1.6268107610680494e-12  -3.0404649181535667e-13  -2.1610723326748139e-13  -2.9443368345191793e-13  -2.7538589799308935e-13  -3.2964492662848054e-13  -3.8075269895693081e-13  -2.4081956952266180e-13  -3.8459844052120333e-13  -2.4220435782715783e-13  -2.2624289344407697e-13  -7.1207158329109090e-12  -1.2875041637710827e-11  -7.2901723865756592e-12  -7.0138839503822243e-12  -1.3079990685545185e-11  -1.3507504112084785e-11  -1.3474125182847416e-11  -6.6087746242025120e-12  -6.5465186210618911e-12  -1.2664369171971552e-11  9.3913154151958088e-14  1.4889939729652603e-13  8.1508161113435631e-14  5.8358241283771365e-14  8.7623090194574103e-14  5.9074927330581967e-14  5.9750735981025956e-14  9.1154398302687859e-14  1.0399538852844110e-13  1.4597857702236076e-13  5.1093594686964401e-11  4.8754512349234724e-11  3.4288278914535551e-11  3.2873642725988992e-11  5.5724872032854086e-11  5.1701673674007600e-11  3.3126251633618883e-11  5.3170886655481263e-11  6.2620781475866211e-14  1.3916350909446760e-13  2.7839174059534740e-11  -6.5016406785171769e-15  2.7324989040795385e-11  4.2311686378836084e-14  1.0273375266394479e-13  5.0702758666383002e-14  7.2030362583786776e-14  1.2201031300062232e-13  7.8379561276818120e-14  -3.2075726457107528e-14  1.0345166300667216e-07  -2.1764459688783195e-14  -6.4355732101381059e-15  -4.9452736713193916e-14  -5.0837137883693300e-14  -3.6943299112216717e-14  -5.2446765497547815e-14  -7.1138002760444968e-14  -4.7146232730804292e-14  -7.9791307006309011e-14  -7.8363017932466431e-14  -5.5257406290579486e-14  -3.2162214217316441e-14  -2.5716506583827832e-14  -2.9726807895542728e-14  -1.0074601283150109e-14  -8.5740158609827462e-11  -8.9391106588210195e-11  -3.9888014570264899e-13  -2.7252971289088685e-13  -4.7387966009099389e-13  -4.7654145702848437e-14  -8.8290549459938645e-11  -9.2645659464871387e-11  1.1627160910021389e-13  4.4316023012